# y+ ()       
# Time        	patch         	min           	max           	average       
1             	trup	5.942971e+01	5.444207e+02	9.141321e+01
2             	trup	3.033015e+01	5.169219e+02	9.150050e+01
3             	trup	2.806303e+01	4.886616e+02	9.183430e+01
4             	trup	4.134755e+01	4.722386e+02	9.196936e+01
5             	trup	3.977553e+01	4.712660e+02	9.166192e+01
6             	trup	3.869578e+01	4.776132e+02	9.100921e+01
7             	trup	2.201285e+01	4.872957e+02	9.028703e+01
8             	trup	1.868942e+01	4.974407e+02	8.968160e+01
9             	trup	3.023268e+01	5.052091e+02	8.926097e+01
10            	trup	2.915725e+01	5.090376e+02	8.902028e+01
11            	trup	2.672329e+01	5.089203e+02	8.888406e+01
12            	trup	2.532154e+01	5.059457e+02	8.877328e+01
13            	trup	2.491488e+01	5.016787e+02	8.863590e+01
14            	trup	2.379997e+01	4.976179e+02	8.843507e+01
15            	trup	2.115371e+01	4.947434e+02	8.816342e+01
16            	trup	2.004019e+01	4.933540e+02	8.784261e+01
17            	trup	2.029116e+01	4.931770e+02	8.750796e+01
18            	trup	2.147840e+01	4.936278e+02	8.718722e+01
19            	trup	2.233803e+01	4.940875e+02	8.689835e+01
20            	trup	2.124340e+01	4.940897e+02	8.664462e+01
21            	trup	2.034995e+01	4.934180e+02	8.641653e+01
22            	trup	1.968574e+01	4.920906e+02	8.619888e+01
23            	trup	1.920002e+01	4.902779e+02	8.597932e+01
24            	trup	1.880615e+01	4.881892e+02	8.574935e+01
25            	trup	1.840867e+01	4.860080e+02	8.550640e+01
26            	trup	1.794434e+01	4.838390e+02	8.525388e+01
27            	trup	1.739629e+01	4.817008e+02	8.499836e+01
28            	trup	1.678959e+01	4.795492e+02	8.474575e+01
29            	trup	1.616761e+01	4.773247e+02	8.449994e+01
30            	trup	1.557598e+01	4.749726e+02	8.426239e+01
31            	trup	1.504610e+01	4.724658e+02	8.403198e+01
32            	trup	1.459085e+01	4.698117e+02	8.380603e+01
33            	trup	1.420614e+01	4.670455e+02	8.358181e+01
34            	trup	1.387813e+01	4.642120e+02	8.335759e+01
35            	trup	1.358891e+01	4.613560e+02	8.313248e+01
36            	trup	1.332221e+01	4.585129e+02	8.290670e+01
37            	trup	1.306647e+01	4.557042e+02	8.268130e+01
38            	trup	1.281552e+01	4.529390e+02	8.245747e+01
39            	trup	1.256748e+01	4.502254e+02	8.223601e+01
40            	trup	1.232298e+01	4.475770e+02	8.201737e+01
41            	trup	1.208381e+01	4.449897e+02	8.180157e+01
42            	trup	1.185158e+01	4.424761e+02	8.158822e+01
43            	trup	1.162733e+01	4.400525e+02	8.137679e+01
44            	trup	1.141236e+01	4.377362e+02	8.116697e+01
45            	trup	1.120551e+01	4.355410e+02	8.095856e+01
46            	trup	1.100578e+01	4.334761e+02	8.075140e+01
47            	trup	1.081163e+01	4.315469e+02	8.054545e+01
48            	trup	1.062399e+01	4.297546e+02	8.034079e+01
49            	trup	1.044307e+01	4.280960e+02	8.013758e+01
50            	trup	1.026872e+01	4.265654e+02	7.993591e+01
51            	trup	1.010174e+01	4.251565e+02	7.973585e+01
52            	trup	9.943566e+00	4.238614e+02	7.953744e+01
53            	trup	9.795565e+00	4.226709e+02	7.934072e+01
54            	trup	9.658582e+00	4.215756e+02	7.914568e+01
55            	trup	9.533541e+00	4.205662e+02	7.895226e+01
56            	trup	9.420197e+00	4.196343e+02	7.876037e+01
57            	trup	9.317968e+00	4.187721e+02	7.856995e+01
58            	trup	9.226254e+00	4.179717e+02	7.838095e+01
59            	trup	9.144527e+00	4.172253e+02	7.819332e+01
60            	trup	9.072245e+00	4.165252e+02	7.800704e+01
61            	trup	9.008745e+00	4.158639e+02	7.782209e+01
62            	trup	8.953171e+00	4.152347e+02	7.763845e+01
63            	trup	8.904588e+00	4.146314e+02	7.745613e+01
64            	trup	8.862272e+00	4.140483e+02	7.727516e+01
65            	trup	8.825788e+00	4.134802e+02	7.709555e+01
66            	trup	8.794783e+00	4.129216e+02	7.691731e+01
67            	trup	8.768992e+00	4.123676e+02	7.674043e+01
68            	trup	8.748171e+00	4.118134e+02	7.656494e+01
69            	trup	8.732049e+00	4.112547e+02	7.639083e+01
70            	trup	8.720281e+00	4.106878e+02	7.621811e+01
71            	trup	8.712486e+00	4.101096e+02	7.604675e+01
72            	trup	8.708271e+00	4.095176e+02	7.587676e+01
73            	trup	8.707299e+00	4.089097e+02	7.570811e+01
74            	trup	8.709301e+00	4.082845e+02	7.554081e+01
75            	trup	8.714101e+00	4.076408e+02	7.537483e+01
76            	trup	8.721572e+00	4.069782e+02	7.521016e+01
77            	trup	8.731635e+00	4.062967e+02	7.504681e+01
78            	trup	8.744205e+00	4.055970e+02	7.488475e+01
79            	trup	8.759189e+00	4.048801e+02	7.472399e+01
80            	trup	8.776469e+00	4.041480e+02	7.456452e+01
81            	trup	8.795918e+00	4.034030e+02	7.440633e+01
82            	trup	8.817386e+00	4.026478e+02	7.424941e+01
83            	trup	8.840733e+00	4.018856e+02	7.409377e+01
84            	trup	8.865813e+00	4.011198e+02	7.393939e+01
85            	trup	8.892511e+00	4.003540e+02	7.378627e+01
86            	trup	8.920723e+00	3.995919e+02	7.363440e+01
87            	trup	8.950375e+00	3.988371e+02	7.348378e+01
88            	trup	8.981399e+00	3.980934e+02	7.333439e+01
89            	trup	9.013753e+00	3.973641e+02	7.318624e+01
90            	trup	9.047391e+00	3.966525e+02	7.303931e+01
91            	trup	9.082277e+00	3.959614e+02	7.289359e+01
92            	trup	9.118357e+00	3.952934e+02	7.274907e+01
93            	trup	9.155566e+00	3.946505e+02	7.260575e+01
94            	trup	9.193829e+00	3.940346e+02	7.246362e+01
95            	trup	9.233067e+00	3.934467e+02	7.232266e+01
96            	trup	9.273204e+00	3.928877e+02	7.218286e+01
97            	trup	9.314189e+00	3.923581e+02	7.204422e+01
98            	trup	9.355987e+00	3.918578e+02	7.190672e+01
99            	trup	9.398587e+00	3.913864e+02	7.177037e+01
100           	trup	9.441988e+00	3.909434e+02	7.163514e+01
101           	trup	9.486206e+00	3.905279e+02	7.150103e+01
102           	trup	9.531255e+00	3.901388e+02	7.136805e+01
103           	trup	9.577151e+00	3.897748e+02	7.123617e+01
104           	trup	9.623890e+00	3.894345e+02	7.110539e+01
105           	trup	9.671461e+00	3.891163e+02	7.097571e+01
106           	trup	9.719843e+00	3.890157e+02	7.084712e+01
107           	trup	9.769020e+00	3.889380e+02	7.071962e+01
108           	trup	9.818974e+00	3.888605e+02	7.059320e+01
109           	trup	9.869701e+00	3.887825e+02	7.046784e+01
110           	trup	9.921202e+00	3.887046e+02	7.034356e+01
111           	trup	9.973495e+00	3.886263e+02	7.022033e+01
112           	trup	1.002658e+01	3.885480e+02	7.009816e+01
113           	trup	1.008047e+01	3.884696e+02	6.997704e+01
114           	trup	1.013514e+01	3.883913e+02	6.985696e+01
115           	trup	1.019053e+01	3.883128e+02	6.973792e+01
116           	trup	1.024658e+01	3.882349e+02	6.961991e+01
117           	trup	1.030320e+01	3.881567e+02	6.950292e+01
118           	trup	1.036028e+01	3.880791e+02	6.938695e+01
119           	trup	1.041771e+01	3.880019e+02	6.927200e+01
120           	trup	1.047539e+01	3.879254e+02	6.915805e+01
121           	trup	1.053324e+01	3.878495e+02	6.904511e+01
122           	trup	1.059114e+01	3.877749e+02	6.893316e+01
123           	trup	1.064900e+01	3.877011e+02	6.882221e+01
124           	trup	1.070670e+01	3.876285e+02	6.871224e+01
125           	trup	1.076412e+01	3.875839e+02	6.860326e+01
126           	trup	1.082112e+01	3.875558e+02	6.849525e+01
127           	trup	1.087754e+01	3.875293e+02	6.838822e+01
128           	trup	1.093322e+01	3.875044e+02	6.828216e+01
129           	trup	1.098801e+01	3.874810e+02	6.817706e+01
130           	trup	1.104173e+01	3.874588e+02	6.807292e+01
131           	trup	1.109423e+01	3.874378e+02	6.796973e+01
132           	trup	1.114537e+01	3.874179e+02	6.786750e+01
133           	trup	1.119498e+01	3.873988e+02	6.776620e+01
134           	trup	1.124295e+01	3.873805e+02	6.766585e+01
135           	trup	1.128912e+01	3.873627e+02	6.756644e+01
136           	trup	1.133338e+01	3.873454e+02	6.746796e+01
137           	trup	1.137561e+01	3.873285e+02	6.737040e+01
138           	trup	1.141495e+01	3.873118e+02	6.727376e+01
139           	trup	1.144723e+01	3.872953e+02	6.717805e+01
140           	trup	1.147304e+01	3.872788e+02	6.708324e+01
141           	trup	1.149230e+01	3.872622e+02	6.698934e+01
142           	trup	1.139346e+01	3.872454e+02	6.689635e+01
143           	trup	1.104500e+01	3.872284e+02	6.680426e+01
144           	trup	1.069862e+01	3.872112e+02	6.671306e+01
145           	trup	1.035514e+01	3.871935e+02	6.662275e+01
146           	trup	1.001562e+01	3.871753e+02	6.653333e+01
147           	trup	9.681306e+00	3.871567e+02	6.644480e+01
148           	trup	9.353681e+00	3.871375e+02	6.635714e+01
149           	trup	9.034714e+00	3.871177e+02	6.627036e+01
150           	trup	8.728036e+00	3.870974e+02	6.618446e+01
151           	trup	8.437930e+00	3.870764e+02	6.609942e+01
152           	trup	8.168583e+00	3.870548e+02	6.601525e+01
153           	trup	7.923688e+00	3.870325e+02	6.593194e+01
154           	trup	7.706453e+00	3.870096e+02	6.584949e+01
155           	trup	7.520633e+00	3.869861e+02	6.576790e+01
156           	trup	7.369881e+00	3.869620e+02	6.568716e+01
157           	trup	7.258399e+00	3.869374e+02	6.560727e+01
158           	trup	7.190473e+00	3.869122e+02	6.552822e+01
159           	trup	7.170082e+00	3.868864e+02	6.545002e+01
160           	trup	7.200254e+00	3.868602e+02	6.537265e+01
161           	trup	7.286441e+00	3.868335e+02	6.529612e+01
162           	trup	7.433782e+00	3.868065e+02	6.522042e+01
163           	trup	7.515316e+00	3.867791e+02	6.514555e+01
164           	trup	7.355917e+00	3.867515e+02	6.507151e+01
165           	trup	7.224592e+00	3.867236e+02	6.499829e+01
166           	trup	7.124718e+00	3.866956e+02	6.492589e+01
167           	trup	7.054444e+00	3.866675e+02	6.485431e+01
168           	trup	7.026456e+00	3.866393e+02	6.478354e+01
169           	trup	7.049207e+00	3.866111e+02	6.471358e+01
170           	trup	7.127724e+00	3.865829e+02	6.464443e+01
171           	trup	7.265112e+00	3.865549e+02	6.457609e+01
172           	trup	7.463016e+00	3.865270e+02	6.450854e+01
173           	trup	7.721384e+00	3.864994e+02	6.444178e+01
174           	trup	8.038456e+00	3.864722e+02	6.437581e+01
175           	trup	8.409025e+00	3.864452e+02	6.431062e+01
176           	trup	8.827071e+00	3.864187e+02	6.424622e+01
177           	trup	9.287543e+00	3.863927e+02	6.418258e+01
178           	trup	9.793676e+00	3.863673e+02	6.411972e+01
179           	trup	1.034586e+01	3.863424e+02	6.405762e+01
180           	trup	1.093612e+01	3.863181e+02	6.399628e+01
181           	trup	1.143843e+01	3.862944e+02	6.393570e+01
182           	trup	1.146362e+01	3.862716e+02	6.387587e+01
183           	trup	1.148907e+01	3.862494e+02	6.381679e+01
184           	trup	1.151463e+01	3.862282e+02	6.375845e+01
185           	trup	1.154041e+01	3.862078e+02	6.370085e+01
186           	trup	1.156659e+01	3.861883e+02	6.364399e+01
187           	trup	1.159335e+01	3.861698e+02	6.358787e+01
188           	trup	1.162091e+01	3.861524e+02	6.353247e+01
189           	trup	1.164933e+01	3.861360e+02	6.347781e+01
190           	trup	1.167883e+01	3.861207e+02	6.342387e+01
191           	trup	1.170936e+01	3.861065e+02	6.337065e+01
192           	trup	1.174083e+01	3.860935e+02	6.331815e+01
193           	trup	1.177313e+01	3.860817e+02	6.326635e+01
194           	trup	1.180613e+01	3.860711e+02	6.321526e+01
195           	trup	1.183965e+01	3.860617e+02	6.316486e+01
196           	trup	1.187355e+01	3.860535e+02	6.311517e+01
197           	trup	1.137375e+01	3.860465e+02	6.306616e+01
198           	trup	1.069930e+01	3.860409e+02	6.301786e+01
199           	trup	1.005654e+01	3.860365e+02	6.297024e+01
200           	trup	9.481551e+00	3.860335e+02	6.292331e+01
201           	trup	9.020599e+00	3.860318e+02	6.287706e+01
202           	trup	8.727067e+00	3.860314e+02	6.283150e+01
203           	trup	8.651194e+00	3.860323e+02	6.278662e+01
204           	trup	8.825722e+00	3.860345e+02	6.274240e+01
205           	trup	9.252386e+00	3.860379e+02	6.269886e+01
206           	trup	9.904776e+00	3.860426e+02	6.265597e+01
207           	trup	1.074259e+01	3.860484e+02	6.261374e+01
208           	trup	1.172453e+01	3.860553e+02	6.257215e+01
209           	trup	1.233299e+01	3.860634e+02	6.253120e+01
210           	trup	1.153723e+01	3.860726e+02	6.249089e+01
211           	trup	1.072043e+01	3.860828e+02	6.245121e+01
212           	trup	9.933706e+00	3.860940e+02	6.241215e+01
213           	trup	9.222211e+00	3.861061e+02	6.237371e+01
214           	trup	8.647910e+00	3.861191e+02	6.233588e+01
215           	trup	8.286489e+00	3.861328e+02	6.229866e+01
216           	trup	8.207107e+00	3.861472e+02	6.226206e+01
217           	trup	8.446953e+00	3.861622e+02	6.222608e+01
218           	trup	8.995217e+00	3.861778e+02	6.219071e+01
219           	trup	9.801385e+00	3.861938e+02	6.215594e+01
220           	trup	1.079798e+01	3.862102e+02	6.212175e+01
221           	trup	1.192712e+01	3.862269e+02	6.208814e+01
222           	trup	1.270595e+01	3.862438e+02	6.205509e+01
223           	trup	1.272948e+01	3.862609e+02	6.202261e+01
224           	trup	1.275208e+01	3.862782e+02	6.199069e+01
225           	trup	1.277372e+01	3.862955e+02	6.195932e+01
226           	trup	1.279418e+01	3.863128e+02	6.192850e+01
227           	trup	1.281319e+01	3.863299e+02	6.189821e+01
228           	trup	1.283047e+01	3.863470e+02	6.186847e+01
229           	trup	1.284588e+01	3.863639e+02	6.183926e+01
230           	trup	1.285937e+01	3.863806e+02	6.181057e+01
231           	trup	1.287089e+01	3.863969e+02	6.178240e+01
232           	trup	1.288068e+01	3.864130e+02	6.175473e+01
233           	trup	1.288890e+01	3.864286e+02	6.172756e+01
234           	trup	1.289583e+01	3.864440e+02	6.170091e+01
235           	trup	1.290168e+01	3.864590e+02	6.167478e+01
236           	trup	1.290660e+01	3.864737e+02	6.164915e+01
237           	trup	1.291080e+01	3.864881e+02	6.162402e+01
238           	trup	1.291439e+01	3.865021e+02	6.159939e+01
239           	trup	1.291753e+01	3.865157e+02	6.157526e+01
240           	trup	1.292033e+01	3.865289e+02	6.155163e+01
241           	trup	1.292287e+01	3.865418e+02	6.152848e+01
242           	trup	1.292515e+01	3.865544e+02	6.150582e+01
243           	trup	1.292717e+01	3.865667e+02	6.148364e+01
244           	trup	1.292888e+01	3.865788e+02	6.146195e+01
245           	trup	1.293026e+01	3.865907e+02	6.144075e+01
246           	trup	1.293124e+01	3.866026e+02	6.142002e+01
247           	trup	1.293178e+01	3.866145e+02	6.139975e+01
248           	trup	1.293186e+01	3.866264e+02	6.137994e+01
249           	trup	1.293127e+01	3.866383e+02	6.136057e+01
250           	trup	1.292983e+01	3.866503e+02	6.134164e+01
251           	trup	1.292740e+01	3.866624e+02	6.132316e+01
252           	trup	1.292386e+01	3.866747e+02	6.130514e+01
253           	trup	1.291899e+01	3.866872e+02	6.128751e+01
254           	trup	1.291242e+01	3.867001e+02	6.127017e+01
255           	trup	1.290404e+01	3.867134e+02	6.125316e+01
256           	trup	1.289398e+01	3.867271e+02	6.123652e+01
257           	trup	1.288262e+01	3.867412e+02	6.122027e+01
258           	trup	1.287051e+01	3.867557e+02	6.120442e+01
259           	trup	1.285820e+01	3.867707e+02	6.118896e+01
260           	trup	1.284693e+01	3.867863e+02	6.117387e+01
261           	trup	1.283824e+01	3.868024e+02	6.115917e+01
262           	trup	1.283272e+01	3.868192e+02	6.114483e+01
263           	trup	1.283028e+01	3.868367e+02	6.113087e+01
264           	trup	1.282902e+01	3.868549e+02	6.111727e+01
265           	trup	1.279525e+01	3.868740e+02	6.110404e+01
266           	trup	1.283595e+01	3.868939e+02	6.109118e+01
267           	trup	1.284025e+01	3.869147e+02	6.107871e+01
268           	trup	1.254316e+01	3.869364e+02	6.106660e+01
269           	trup	1.223074e+01	3.869589e+02	6.105484e+01
270           	trup	1.193589e+01	3.869821e+02	6.104345e+01
271           	trup	1.165722e+01	3.870060e+02	6.103240e+01
272           	trup	1.139370e+01	3.870306e+02	6.102170e+01
273           	trup	1.114475e+01	3.870557e+02	6.101134e+01
274           	trup	1.091023e+01	3.870815e+02	6.100131e+01
275           	trup	1.069008e+01	3.871077e+02	6.099161e+01
276           	trup	1.048397e+01	3.871344e+02	6.098223e+01
277           	trup	1.029225e+01	3.871615e+02	6.097319e+01
278           	trup	1.011358e+01	3.871889e+02	6.096445e+01
279           	trup	9.942876e+00	3.872167e+02	6.095579e+01
280           	trup	9.776867e+00	3.872447e+02	6.094734e+01
281           	trup	9.616331e+00	3.872729e+02	6.093918e+01
282           	trup	9.463530e+00	3.873011e+02	6.093131e+01
283           	trup	9.321637e+00	3.873292e+02	6.092374e+01
284           	trup	9.192877e+00	3.873572e+02	6.091644e+01
285           	trup	9.077981e+00	3.873850e+02	6.090941e+01
286           	trup	8.976558e+00	3.874124e+02	6.090264e+01
287           	trup	8.887487e+00	3.874396e+02	6.089612e+01
288           	trup	8.809076e+00	3.874665e+02	6.088985e+01
289           	trup	8.739453e+00	3.874932e+02	6.088382e+01
290           	trup	8.676724e+00	3.875196e+02	6.087803e+01
291           	trup	8.619250e+00	3.875458e+02	6.087249e+01
292           	trup	8.565813e+00	3.875716e+02	6.086718e+01
293           	trup	8.515759e+00	3.875970e+02	6.086209e+01
294           	trup	8.468447e+00	3.876219e+02	6.085724e+01
295           	trup	8.424413e+00	3.876464e+02	6.085260e+01
296           	trup	8.383800e+00	3.876703e+02	6.084818e+01
297           	trup	8.346811e+00	3.876937e+02	6.084397e+01
298           	trup	8.313542e+00	3.877166e+02	6.083997e+01
299           	trup	8.284025e+00	3.877388e+02	6.083617e+01
300           	trup	8.258049e+00	3.877606e+02	6.083257e+01
301           	trup	8.235315e+00	3.877817e+02	6.082917e+01
302           	trup	8.215440e+00	3.878024e+02	6.082596e+01
303           	trup	8.198068e+00	3.878226e+02	6.082295e+01
304           	trup	8.182891e+00	3.878424e+02	6.082012e+01
305           	trup	8.169679e+00	3.878619e+02	6.081748e+01
306           	trup	8.158306e+00	3.878809e+02	6.081501e+01
307           	trup	8.148623e+00	3.878996e+02	6.081271e+01
308           	trup	8.140564e+00	3.879181e+02	6.081059e+01
309           	trup	8.134047e+00	3.879365e+02	6.080864e+01
310           	trup	8.128987e+00	3.879547e+02	6.080686e+01
311           	trup	8.125312e+00	3.879730e+02	6.080525e+01
312           	trup	8.122942e+00	3.879912e+02	6.080379e+01
313           	trup	8.121796e+00	3.880096e+02	6.080250e+01
314           	trup	8.121842e+00	3.880280e+02	6.080137e+01
315           	trup	8.122974e+00	3.880465e+02	6.080038e+01
316           	trup	8.111350e+00	3.880652e+02	6.079955e+01
317           	trup	8.087898e+00	3.880839e+02	6.079886e+01
318           	trup	8.067549e+00	3.881029e+02	6.079832e+01
319           	trup	8.050171e+00	3.881222e+02	6.079792e+01
320           	trup	8.035559e+00	3.881417e+02	6.079766e+01
321           	trup	8.023552e+00	3.881617e+02	6.079755e+01
322           	trup	8.013986e+00	3.881822e+02	6.079757e+01
323           	trup	8.006702e+00	3.882032e+02	6.079772e+01
324           	trup	8.001559e+00	3.882247e+02	6.079801e+01
325           	trup	7.998436e+00	3.882468e+02	6.079842e+01
326           	trup	7.997203e+00	3.882696e+02	6.079895e+01
327           	trup	7.997677e+00	3.882929e+02	6.079961e+01
328           	trup	7.999706e+00	3.883168e+02	6.080038e+01
329           	trup	8.003147e+00	3.883411e+02	6.080128e+01
330           	trup	8.007901e+00	3.883661e+02	6.080228e+01
331           	trup	8.013886e+00	3.883915e+02	6.080340e+01
332           	trup	8.020979e+00	3.884175e+02	6.080463e+01
333           	trup	8.029095e+00	3.884440e+02	6.080596e+01
334           	trup	8.038059e+00	3.884710e+02	6.080740e+01
335           	trup	8.047742e+00	3.884984e+02	6.080894e+01
336           	trup	8.058009e+00	3.885263e+02	6.081058e+01
337           	trup	8.068735e+00	3.885548e+02	6.081231e+01
338           	trup	8.079810e+00	3.885837e+02	6.081414e+01
339           	trup	8.091164e+00	3.886131e+02	6.081605e+01
340           	trup	8.102734e+00	3.886429e+02	6.081805e+01
341           	trup	8.114468e+00	3.886732e+02	6.082014e+01
342           	trup	8.126316e+00	3.887038e+02	6.082231e+01
343           	trup	8.138224e+00	3.887346e+02	6.082455e+01
344           	trup	8.150153e+00	3.887656e+02	6.082688e+01
345           	trup	8.162053e+00	3.887967e+02	6.082927e+01
346           	trup	8.173871e+00	3.888278e+02	6.083173e+01
347           	trup	8.185535e+00	3.888589e+02	6.083426e+01
348           	trup	8.196982e+00	3.888899e+02	6.083685e+01
349           	trup	8.208177e+00	3.889209e+02	6.083950e+01
350           	trup	8.219082e+00	3.889519e+02	6.084222e+01
351           	trup	8.229671e+00	3.889826e+02	6.084499e+01
352           	trup	8.239922e+00	3.890133e+02	6.084782e+01
353           	trup	8.249813e+00	3.890439e+02	6.085071e+01
354           	trup	8.259350e+00	3.890744e+02	6.085364e+01
355           	trup	8.268535e+00	3.891049e+02	6.085662e+01
356           	trup	8.277376e+00	3.891352e+02	6.085965e+01
357           	trup	8.285881e+00	3.891653e+02	6.086271e+01
358           	trup	8.294057e+00	3.891952e+02	6.086582e+01
359           	trup	8.301933e+00	3.892247e+02	6.086896e+01
360           	trup	8.309529e+00	3.892538e+02	6.087214e+01
361           	trup	8.316865e+00	3.892827e+02	6.087535e+01
362           	trup	8.323955e+00	3.893112e+02	6.087860e+01
363           	trup	8.330813e+00	3.893394e+02	6.088188e+01
364           	trup	8.337476e+00	3.893673e+02	6.088520e+01
365           	trup	8.343977e+00	3.893950e+02	6.088854e+01
366           	trup	8.350348e+00	3.894223e+02	6.089191e+01
367           	trup	8.356618e+00	3.894495e+02	6.089530e+01
368           	trup	8.362808e+00	3.894764e+02	6.089872e+01
369           	trup	8.368933e+00	3.895033e+02	6.090216e+01
370           	trup	8.375032e+00	3.895301e+02	6.090561e+01
371           	trup	8.381131e+00	3.895570e+02	6.090909e+01
372           	trup	8.387268e+00	3.895840e+02	6.091259e+01
373           	trup	8.393470e+00	3.896111e+02	6.091610e+01
374           	trup	8.399759e+00	3.896381e+02	6.091963e+01
375           	trup	8.406149e+00	3.896652e+02	6.092316e+01
376           	trup	8.412683e+00	3.896923e+02	6.092671e+01
377           	trup	8.419398e+00	3.897195e+02	6.093026e+01
378           	trup	8.426321e+00	3.897468e+02	6.093381e+01
379           	trup	8.433478e+00	3.897744e+02	6.093737e+01
380           	trup	8.440892e+00	3.898022e+02	6.094094e+01
381           	trup	8.448580e+00	3.898303e+02	6.094451e+01
382           	trup	8.456550e+00	3.898589e+02	6.094807e+01
383           	trup	8.464813e+00	3.898879e+02	6.095165e+01
384           	trup	8.473407e+00	3.899174e+02	6.095522e+01
385           	trup	8.482360e+00	3.899475e+02	6.095880e+01
386           	trup	8.491699e+00	3.899781e+02	6.096237e+01
387           	trup	8.501443e+00	3.900092e+02	6.096593e+01
388           	trup	8.511604e+00	3.900409e+02	6.096949e+01
389           	trup	8.522192e+00	3.900731e+02	6.097304e+01
390           	trup	8.533207e+00	3.901058e+02	6.097658e+01
391           	trup	8.544654e+00	3.901390e+02	6.098011e+01
392           	trup	8.556562e+00	3.901728e+02	6.098364e+01
393           	trup	8.568955e+00	3.902071e+02	6.098715e+01
394           	trup	8.581861e+00	3.902420e+02	6.099066e+01
395           	trup	8.595295e+00	3.902774e+02	6.099415e+01
396           	trup	8.609269e+00	3.903133e+02	6.099764e+01
397           	trup	8.623792e+00	3.903498e+02	6.100110e+01
398           	trup	8.638870e+00	3.903868e+02	6.100455e+01
399           	trup	8.654501e+00	3.904244e+02	6.100798e+01
400           	trup	8.670686e+00	3.904625e+02	6.101140e+01
401           	trup	8.687454e+00	3.905012e+02	6.101480e+01
402           	trup	8.704814e+00	3.905404e+02	6.101817e+01
403           	trup	8.722779e+00	3.905800e+02	6.102152e+01
404           	trup	8.741360e+00	3.906200e+02	6.102485e+01
405           	trup	8.760559e+00	3.906604e+02	6.102816e+01
406           	trup	8.780373e+00	3.907010e+02	6.103144e+01
407           	trup	8.800790e+00	3.907419e+02	6.103469e+01
408           	trup	8.821793e+00	3.907829e+02	6.103793e+01
409           	trup	8.843363e+00	3.908241e+02	6.104113e+01
410           	trup	8.865521e+00	3.908653e+02	6.104431e+01
411           	trup	8.888275e+00	3.909067e+02	6.104746e+01
412           	trup	8.911634e+00	3.909482e+02	6.105058e+01
413           	trup	8.935604e+00	3.909898e+02	6.105368e+01
414           	trup	8.960186e+00	3.910316e+02	6.105675e+01
415           	trup	8.985362e+00	3.910735e+02	6.105978e+01
416           	trup	9.011119e+00	3.911156e+02	6.106279e+01
417           	trup	9.037447e+00	3.911577e+02	6.106576e+01
418           	trup	9.064316e+00	3.911997e+02	6.106870e+01
419           	trup	9.091694e+00	3.912414e+02	6.107160e+01
420           	trup	9.119588e+00	3.912830e+02	6.107447e+01
421           	trup	9.147999e+00	3.913243e+02	6.107730e+01
422           	trup	9.176931e+00	3.913654e+02	6.108010e+01
423           	trup	9.206385e+00	3.914062e+02	6.108286e+01
424           	trup	9.236346e+00	3.914469e+02	6.108559e+01
425           	trup	9.266791e+00	3.914874e+02	6.108828e+01
426           	trup	9.297689e+00	3.915278e+02	6.109093e+01
427           	trup	9.329004e+00	3.915680e+02	6.109354e+01
428           	trup	9.360711e+00	3.916080e+02	6.109612e+01
429           	trup	9.392795e+00	3.916478e+02	6.109866e+01
430           	trup	9.425254e+00	3.916874e+02	6.110115e+01
431           	trup	9.458073e+00	3.917267e+02	6.110361e+01
432           	trup	9.491234e+00	3.917657e+02	6.110604e+01
433           	trup	9.524713e+00	3.918045e+02	6.110842e+01
434           	trup	9.558481e+00	3.918430e+02	6.111076e+01
435           	trup	9.592517e+00	3.918812e+02	6.111306e+01
436           	trup	9.626793e+00	3.919192e+02	6.111532e+01
437           	trup	9.661294e+00	3.919569e+02	6.111755e+01
438           	trup	9.696007e+00	3.919943e+02	6.111973e+01
439           	trup	9.730910e+00	3.920315e+02	6.112187e+01
440           	trup	9.765987e+00	3.920685e+02	6.112397e+01
441           	trup	9.801216e+00	3.921054e+02	6.112604e+01
442           	trup	9.836571e+00	3.921422e+02	6.112806e+01
443           	trup	9.872017e+00	3.921788e+02	6.113004e+01
444           	trup	9.907530e+00	3.922153e+02	6.113198e+01
445           	trup	9.943074e+00	3.922516e+02	6.113388e+01
446           	trup	9.978628e+00	3.922878e+02	6.113574e+01
447           	trup	1.001417e+01	3.923238e+02	6.113757e+01
448           	trup	1.004969e+01	3.923596e+02	6.113936e+01
449           	trup	1.008516e+01	3.923954e+02	6.114111e+01
450           	trup	1.012058e+01	3.924312e+02	6.114283e+01
451           	trup	1.015591e+01	3.924670e+02	6.114451e+01
452           	trup	1.019113e+01	3.925028e+02	6.114615e+01
453           	trup	1.022621e+01	3.925387e+02	6.114776e+01
454           	trup	1.026112e+01	3.925747e+02	6.114934e+01
455           	trup	1.029581e+01	3.926107e+02	6.115088e+01
456           	trup	1.033028e+01	3.926468e+02	6.115239e+01
457           	trup	1.036449e+01	3.926829e+02	6.115386e+01
458           	trup	1.039843e+01	3.927189e+02	6.115530e+01
459           	trup	1.043211e+01	3.927550e+02	6.115670e+01
460           	trup	1.046548e+01	3.927914e+02	6.115807e+01
461           	trup	1.049853e+01	3.928280e+02	6.115940e+01
462           	trup	1.053124e+01	3.928650e+02	6.116070e+01
463           	trup	1.056360e+01	3.929024e+02	6.116196e+01
464           	trup	1.059557e+01	3.929400e+02	6.116319e+01
465           	trup	1.062712e+01	3.929780e+02	6.116439e+01
466           	trup	1.065823e+01	3.930162e+02	6.116556e+01
467           	trup	1.068888e+01	3.930548e+02	6.116669e+01
468           	trup	1.071904e+01	3.930936e+02	6.116780e+01
469           	trup	1.074869e+01	3.931328e+02	6.116887e+01
470           	trup	1.077784e+01	3.931723e+02	6.116992e+01
471           	trup	1.080647e+01	3.932121e+02	6.117094e+01
472           	trup	1.083459e+01	3.932524e+02	6.117192e+01
473           	trup	1.086219e+01	3.932931e+02	6.117287e+01
474           	trup	1.088925e+01	3.933342e+02	6.117379e+01
475           	trup	1.091577e+01	3.933758e+02	6.117467e+01
476           	trup	1.094174e+01	3.934180e+02	6.117553e+01
477           	trup	1.096713e+01	3.934605e+02	6.117635e+01
478           	trup	1.099193e+01	3.935035e+02	6.117714e+01
479           	trup	1.101611e+01	3.935468e+02	6.117791e+01
480           	trup	1.103967e+01	3.935905e+02	6.117866e+01
481           	trup	1.106261e+01	3.936347e+02	6.117938e+01
482           	trup	1.108493e+01	3.936794e+02	6.118006e+01
483           	trup	1.110662e+01	3.937246e+02	6.118072e+01
484           	trup	1.112770e+01	3.937702e+02	6.118136e+01
485           	trup	1.114815e+01	3.938162e+02	6.118197e+01
486           	trup	1.116801e+01	3.938626e+02	6.118255e+01
487           	trup	1.118727e+01	3.939094e+02	6.118311e+01
488           	trup	1.120593e+01	3.939566e+02	6.118364e+01
489           	trup	1.122399e+01	3.940041e+02	6.118415e+01
490           	trup	1.124145e+01	3.940520e+02	6.118463e+01
491           	trup	1.125830e+01	3.941002e+02	6.118508e+01
492           	trup	1.127454e+01	3.941487e+02	6.118550e+01
493           	trup	1.129017e+01	3.941974e+02	6.118590e+01
494           	trup	1.130519e+01	3.942464e+02	6.118627e+01
495           	trup	1.131961e+01	3.942956e+02	6.118662e+01
496           	trup	1.133343e+01	3.943451e+02	6.118695e+01
497           	trup	1.134664e+01	3.943947e+02	6.118724e+01
498           	trup	1.135925e+01	3.944445e+02	6.118752e+01
499           	trup	1.137128e+01	3.944946e+02	6.118777e+01
500           	trup	1.138272e+01	3.945449e+02	6.118799e+01
501           	trup	1.139359e+01	3.945953e+02	6.118819e+01
502           	trup	1.140392e+01	3.946457e+02	6.118836e+01
503           	trup	1.141369e+01	3.946962e+02	6.118850e+01
504           	trup	1.142303e+01	3.947466e+02	6.118862e+01
505           	trup	1.143176e+01	3.947970e+02	6.118872e+01
506           	trup	1.144000e+01	3.948475e+02	6.118878e+01