/*--------------------------------*- C++ -*----------------------------------*\
| =========                 |                                                 |
| \\      /  F ield         | OpenFOAM: The Open Source CFD Toolbox           |
|  \\    /   O peration     | Version:  2206                                  |
|   \\  /    A nd           | Website:  www.openfoam.com                      |
|    \\/     M anipulation  |                                                 |
\*---------------------------------------------------------------------------*/
FoamFile
{
    version     2.0;
    format      ascii;
    arch        "LSB;label=32;scalar=64";
    class       volScalarField;
    location    "0";
    object      thickness;
}
// * * * * * * * * * * * * * * * * * * * * * * * * * * * * * * * * * * * * * //

dimensions      [0 0 0 0 0 0 0];

internalField   uniform 0;

boundaryField
{
    movingWall
    {
        type            fixedValue;
        value           uniform 0;
    }
    front
    {
        type            fixedValue;
        value           uniform 0;
    }
    back
    {
        type            fixedValue;
        value           uniform 0;
    }
    fuselage
    {
        type            fixedValue;
        value           nonuniform List<scalar> 
10795
(
0
0
0
0
0
0
0
0
0
0
0
0
0
0
0
0
0
0
0
0
0
0
0
0
0
0
0
0
0
0
0
0
0
0
0
0
0
0
0
0
0
0
0
0
0
0
0
0
0
0
0
0
0
0
0
0
0
0
0
0
0
0
0
0
0
0
0
0
0
0
0
0
0
0
0
0
0
0
0
0
0
0
0
0
0
0
0
0
0
0
0
0
0
0
0
0
0
0
0
0
0
0
0
0
0
0
0
0
0
0
0
0
0
0
0
0
0
0
0
0
0
0
0
0
0
0
0
0
0
0
0
0
0
0
0
0
0
0
0
0
0
0
0
0
0
0
0
0
0
0
0
0
0
0
0
0
0
0
0
0
0
0
0
0
0
0
0
0
0
0
0
0
0
0
0
0
0
0
0
0
0
0
0
0
0
0
0
0
0
0
0
0
0
0
0
0
0
0
0
0
0
0
0
0
0
0
0
0
0
0
0
0
0
0
0
0
0
0
0
0
0
0
0
0
0
0
0
0
0
0
0
0
0
0
0
0
0
0
0
0
0
0
0
0
0
0
0
0
0
0
0
0
0
0
0
0
0
0
0
0
0
0
0
0
0
0
0
0
0
0
0
0
0
0
0
0
0
0
0
0
0
0
0
0
0
0
0
0
0
0
0
0
0
0
0
0
0
0
0
0
0
0
0
0
0
0
0
0
0
0
0
0
0
0
0
0
0
0
0
0
0
0
0
0
0
0
0
0
0
0
0
0
0
0
0
0
0
0
0
0
0
0
0
0
0
0
0
0
0
0
0
0
0
0
0
0
0
0
0
0
0
0
0
0
0
0
0
0
0
0
0
0
0
0
0
0
0
0
0
0
0
0
0
0
0
0
0
0
0
0
0
0
0
0
0
0
0
0
0
0
0
0
0
0
0
0
0
0
0
0
0
0
0
0
0
0
0
0
0
0
0
0
0
0
0
0
0
0
0
0
0
0
0
0
0
0
0
0
0
0
0
0
0
0
0
0
0
0
0
0
0
0
0
0
0
0
0
0
0
0
0
0
0
0
0
0
0
0
0
0
0
0
0
0
0
0
0
0
0
0
0
0
0
0
0
0
0
0
0
0
0
0
0
0
0
0
0
0
0
0
0
0
0
0
0
0
0
0
0
0
0
0
0
0
0
0
0
0
0
0
0
0
0
0
0
0
0
0
0
0
0
0
0
0
0
0
0
0
0
0
0
0
0
0
0
0
0
0
0
0
0
0
0
0
0
0
0
0
0
0
0
0
0
0
0
0
0
0
0
0
0
0
0
0
0
0
0
0
0
0
0
0
0
0
0
0
0
0
0
0
0
0
0
0
0
0
0
0
0
0
0
0
0
0
0
0
0
0
0
0
0
0
0
0
0
0
0
0
0
0
0
0
0
0
0
0
0
0
0
0
0
0
0
0
0
0
0
0
0
0
0
0
0
0
0
0
0
0
0
0
0
0
0
0
0
0
0
0
0
0
0
0
0
0
0
0
0
0
0
0
0
0
0
0
0
0
0
0
0
0
0
0
0
0
0
0
0
0
0
0
0
0
0
0
0
0
0
0
0
0
0
0
0
0
0
0
0
0
0
0
0
0
0
0
0
0
0
0
0
0
0
0
0
0
0
0
0
0
0
0
0
0
0
0
0
0
0
0
0
0
0
0
0
0
0
0
0
0
0
0
0
0
0
0
0
0
0
0
0
0
0
0
0
0
0
0
0
0
0
0
0
0
0
0
0
0
0
0
0
0
0
0
0
0
0
0
0
0
0
0
0
0
0
0
0
0
0
0
0
0
0
0
0
0
0
0
0
0
0
0
0
0
0
0
0
0
0
0
0
0
0
0
0
0
0
0
0
0
0
0
0
0
0
0
0
0
0
0
0
0
0
0
0
0
0
0
0
0
0
0
0
0
0
0
0
0
0
0
0
0
0
0
0
0
0
0
0
0
0
0
0
0
0
0
0
0
0
0
0
0
0
0
0
0
0
0
0
0
0
0
0
0
0
0
0
0
0
0
0
0
0
0
0
0
0
0
0
0
0
0
0
0
0
0
0
0
0
0
0
0
0
0
0
0
0
0
0
0
0
0
0
0
0
0
0
0
0
0
0
0
0
0
0
0
0
0
0
0
0
0
0
0
0
0
0
0
0
0
0
0
0
0
0
0
0
0
0
0
0
0
0
0
0
0
0
0
0
0
0
0
0
0
0
0
0
0
0
0
0
0
0
0
0
0
0
0
0
0
0
0
0
0
0
0
0
0
0
0
0
0
0
0
0
0
0
0
0
0
0
0
0
0
0
0
0
0
0
0
0
0
0
0
0
0
0
0
0
0
0
0
0
0
0
0
0
0
0
0
0
0
0
0
0
0
0
0
0
0
0
0
0
0
0
0
0
0
0
0
0
0
0
0
0
0
0
0
0
0
0
0
0
0
0
0
0
0
0
0
0
0
0
0
0
0
0
0
0
0
0
0
0
0
0
0
0
0
0
0
0
0
0
0
0
0
0
0
0
0
0
0
0
0
0
0
0
0
0
0
0
0
0
0
0
0
0
0
0
0
0
0
0
0
0
0
0
0
0
0
0
0
0
0
0
0
0
0
0
0
0
0
0
0
0
0
0
0
0
0
0
0
0
0
0
0
0
0
0
0
0
0
0
0
0
0
0
0
0
0
0
0
0
0
0
0
0
0
0
0
0
0
0
0
0
0
0
0
0
0
0
0
0
0
0
0
0
0
0
0
0
0
0
0
0
0
0
0
0
0
0
0
0
0
0
0
0
0
0
0
0
0
0
0
0
0
0
0
0
0
0
0
0
0
0
0
0
0
0
0
0
0
0
0
0
0
0
0
0
0
0
0
0
0
0
0
0
0
0
0
0
0
0
0
0
0
0
0
0
0
0
0
0
0
0
0
0
0
0
0
0
0
0
0
0
0
0
0
0
0
0
0
0
0
0
0
0
0
0
0
0
0
0
0
0
0
0
0
0
0
0
0
0
0
0
0
0
0
0
0
0
0
0
0
0
0
0
0
0
0
0
0
0
0
0
0
0
0
0
0
0
0
0
0
0
0
0
0
0
0
0
0
0
0
0
0
0
0
0
0
0
0
0
0
0
0
0
0
0
0
0
0
0
0
0
0
0
0
0
0
0
0
0
0
0
0
0
0
0
0
0
0
0
0
0
0
0
0
0
0
0
0
0
0
0
0
0
0
0
0
0
0
0
0
0
0
0
0
0
0
0
0
0
0
0
0
0
0
0
0
0
0
0
0
0
0
0
0
0
0
0
0
0
0
0
0
0
0
0
0
0
0
0
0
0
0
0
0
0
0
0
0
0
0
0
0
0
0
0
0
0
0
0
0
0
0
0
0
0
0
0
0
0
0
0
0
0
0
0
0
0
0
0
0
0
0
0
0
0
0
0
0
0
0
0
0
0
0
0
0
0
0
0
0
0
0
0
0
0
0
0
0
0
0
0
0
0
0
0
0
0
0
0
0
0
0
0
0
0
0
0
0
0
0
0
0
0
0
0
0
0
0
0
0
0
0
0
0
0
0
0
0
0
0
0
0
0
0
0
0
0
0
0
0
0
0
0
0
0
0
0
0
0
0
0
0
0
0
0
0
0
0
0
0
0
0
0
0
0
0
0
0
0
0
0
0
0
0
0
0
0
0
0
0
0
0
0
0
0
0
0
0
0
0
0
0
0
0
0
0
0
0
0
0
0
0
0
0
0
0
0
0
0
0
0
0
0
0
0
0
0
0
0
0
0
0
0
0
0
0
0
0
0
0
0
0
0
0
0
0
0
0
0
0
0
0
0
0
0
0
0
0
0
0
0
0
0
0
0
0
0
0
0
0
0
0
0
0
0
0
0
0
0
0
0
0
0
0
0
0
0
0
0
0
0
0
0
0
0
0
0
0
0
0
0
0
0
0
0
0
0
0
0
0
0
0
0
0
0
0
0
0
0
0
0
0
0
0
0
0
0
0
0
0
0
0
0
0
0
0
0
0
0
0
0
0
0
0
0
0
0
0
0
0
0
0
0
0
0
0
0
0
0
0
0
0
0
0
0
0
0
0
0
0
0
0
0
0
0
0
0
0
0
0
0
0
0
0
0
0
0
0
0
0
0
0
0
0
0
0
0
0
0
0
0
0
0
0
0
0
0
0
0
0
0
0
0
0
0
0
0
0
0
0
0
0
0
0
0
0
0
0
0
0
0
0
0
0
0
0
0
0
0
0
0
0
0
0
0
0
0
0
0
0
0
0
0
0
0
0
0
0
0
0
0
0
0
0
0
0
0
0
0
0
0
0
0
0
0
0
0
0
0
0
0
0
0
0
0
0
0
0
0
0
0
0
0
0
0
0
0
0
0
0
0
0
0
0
0
0
0
0
0
0
0
0
0
0
0
0
0
0
0
0
0
0
0
0
0
0
0
0
0
0
0
0
0
0
0
0
0
0
0
0
0
0
0
0
0
0
0
0
0
0
0
0
0
0
0
0
0
0
0
0
0
0
0
0
0
0
0
0
0
0
0
0
0
0
0
0
0
0
0
0
0
0
0
0
0
0
0
0
0
0
0
0
0
0
0
0
0
0
0
0
0
0
0
0
0
0
0
0
0
0
0
0
0
0
0
0
0
0
0
0
0
0
0
0
0
0
0
0
0
0
0
0
0
0
0
0
0
0
0
0
0
0
0
0
0
0
0
0
0
0
0
0
0
0
0
0
0
0
0
0
0
0
0
0
0
0
0
0
0
0
0
0
0
0
0
0
0
0
0
0
0
0
0
0
0
0
0
0
0
0
0
0
0
0
0
0
0
0
0
0
0
0
0
0
0
0
0
0
0
0
0
0
0
0
0
0
0
0
0
0
0
0
0
0
0
0
0
0
0
0
0
0
0
0
0
0
0
0
0
0
0
0
0
0
0
0
0
0
0
0
0
0
0
0
0
0
0
0
0
0
0
0
0
0
0
0
0
0
0
0
0
0
0
0
0
0
0
0
0
0
0
0
0
0
0
0
0
0
0
0
0
0
0
0
0
0
0
0
0
0
0
0
0
0
0
0
0
0
0
0
0
0
0
0
0
0
0
0
0
0
0
0
0
0
0
0
0
0
0
0
0
0
0
0
0
0
0
0
0
0
0
0
0
0
0
0
0
0
0
0
0
0
0
0
0
0
0
0
0
0
0
0
0
0
0
0
0
0
0
0
0
0
0
0
0
0
0
0
0
0
0
0
0
0
0
0
0
0
0
0
0
0
0
0
0
0
0
0
0
0
0
0
0
0
0
0
0
0
0
0
0
0
0
0
0
0
0
0
0
0
0
0
0.0257803
0.0745666
0.0745717
0.0746252
0.0745563
0.0281052
0.0191545
0.0159367
0.0188408
0.0154651
0.0176888
0.0197232
0.00905499
0.0600136
0.0427367
0.0439755
0.059655
0.0479113
0.0463451
0.0299085
0.0302917
0.0777377
0.027824
0.111313
0.0544855
0.0546813
0.058661
0.106014
0.111308
0.111313
0.111311
0.0304363
0.0123568
0.050962
0.0563487
0.105781
0.111308
0.111313
0.111311
0.0295781
0.0120547
0.029635
0.0299082
0.0772429
0.111313
0.0331678
0.0817079
0.027282
0.0745768
0.0559928
0.074556
0.0604344
0.0555171
0.0745775
0.0569275
0.0745563
0.060411
0.0573257
0.0633235
0.00975037
0.015434
0.0185501
0.090237
0.0983142
0.0101367
0.111278
0.104615
0.0152211
0.107819
0.111263
0.0267207
0.104906
0.0387699
0.0670127
0.111313
0.082012
0.0782524
0.0699093
0.0977517
0.0601098
0.018363
0.0846542
0.0592979
0.111313
0.111313
0.101751
0.111313
0.0431617
0.0180073
0.0414301
0.0373089
0.0151509
0.0967061
0.05951
0.0841574
0.0582322
0.111313
0.111313
0.101693
0.111313
0.0683938
0.0307107
0.0375894
0.0423829
0.0176861
0.0161163
0.00845572
0.00293011
0.0202226
0.0205793
0.00859503
0.0695791
0.098095
0.00981811
0.111313
0.0322214
0.0776233
0.111273
0.0959344
0.0171273
0.107389
0.111152
0.0267391
0.105061
0.0393953
0.0665842
0.068437
0.0307342
0.0383011
0.00274562
0.00712895
0.00883519
0.00848509
0.0187942
0.00984937
0.0246224
0.00521273
0.0092156
0.0269419
0.00308024
0.0125011
0.00629839
0.0193081
0.0222049
0.0252798
0.00695805
0.0440093
0.0257107
0.01587
0.0117242
0.0543365
0.00334163
0.0495985
0.0495071
0.0477939
0.0495063
0.00752385
0.0302634
0.0210908
0.017249
0.0221708
0.0205986
0.00693948
0.0484072
0.0246195
0.0163012
0.0368913
0.0560213
0.00322894
0.0518017
0.0548467
0.052901
0.0548951
0.00857078
0.0184157
0.052518
0.0115441
0.0262379
0.00990803
0.0476215
0.0391865
0.0404911
0.0518444
0.0202021
0.0581272
0.0566039
0.029988
0.0157013
0.054245
0.0112235
0.00635005
0.0182834
0.00817746
0.0899196
0.0172801
0.100353
0.0679914
0.00685232
0.100399
0.0294432
0.0350839
0.0705709
0.0211762
0.0728467
0.0901212
0.00893866
0.0182362
0.0164449
0.0978508
0.0284003
0.0249061
0.00565255
0.0226695
0.0947943
0.104367
0.0704588
0.0685712
0.0898483
0.0729934
0.0488788
0.0515866
0.0336848
0.0992817
0.0909081
0.111183
0.110409
0.0425623
0.00880756
0.0498212
0.0155863
0.00936726
0.0840322
0.0643609
0.083996
0.0536551
0.0274185
0.101185
0.0217633
0.0232222
0.0140809
0.0888664
0.0900732
0.103419
0.111302
0.109759
0.109629
0.104569
0.111313
0.111313
0.0512761
0.038886
0.00950472
0.0026603
0.00846076
0.0497713
0.0207069
0.00712236
0.087927
0.0663683
0.0835857
0.00922282
0.0304434
0.00434138
0.0421226
0.0276138
0.0288106
0.0151869
0.102213
0.102493
0.00507017
0.104321
0.105099
0.10656
0.109574
0.109796
0.111302
0.109619
0.110498
0.111313
0.111313
0.0747255
0.0742162
0.0961283
0.0109451
0.0848132
0.0781237
0.107702
0.068092
0.0792606
0.0591365
0.0547987
0.0533953
0.0411596
0.0168527
0.00395343
0.0058579
0.0186753
0.0197813
0.0898464
0.0163024
0.102704
0.0677212
0.00656897
0.0978442
0.0297955
0.0319889
0.0306132
0.0328304
0.0736089
0.0878498
0.00788013
0.0237771
0.0180164
0.00911625
0.101417
0.0356465
0.0369154
0.00976895
0.0510901
0.0533644
0.0345729
0.0828321
0.0899535
0.111082
0.109767
0.0225985
0.0947945
0.104368
0.0702956
0.0687085
0.0898471
0.0730219
0.0747197
0.0746204
0.0961332
0.0106308
0.0851384
0.0783028
0.108117
0.0687537
0.0793959
0.0603955
0.0557662
0.0535374
0.0261911
0.107076
0.100474
0.0412877
0.071825
0.111153
0.0740045
0.0838286
0.0444817
0.0520341
0.0921234
0.0884812
0.0747071
0.0109333
0.0156629
0.00468839
0.0366459
0.0886921
0.0886962
0.041528
0.0226573
0.011789
0.037025
0.00561765
0.0780293
0.0714043
0.104076
0.0865006
0.014085
0.0136957
0.00479165
0.038386
0.0434029
0.00690911
0.0364247
0.0112655
0.105342
0.0916115
0.0462231
0.0448342
0.0764192
0.110997
0.0891076
0.0565155
0.0581199
0.0987261
0.0582139
0.057427
0.100245
0.0334691
0.0343203
0.0873851
0.00675491
0.088439
0.0623907
0.107724
0.110689
0.0646837
0.088221
0.0884347
0.0968635
0.0645984
0.110657
0.0646843
0.0874051
0.0581628
0.0695157
0.100276
0.0319618
0.0343559
0.0873848
0.00657769
0.08844
0.0761836
0.0205782
0.107729
0.110689
0.0791497
0.0882216
0.088435
0.0203835
0.101576
0.0712531
0.110692
0.0789928
0.0874126
0.0497684
0.0176849
0.029821
0.102776
0.106175
0.0526746
0.111166
0.0322138
0.111123
0.0938625
0.108353
0.0939388
0.111293
0.109569
0.111289
0.111293
0.111158
0.104257
0.0960204
0.111268
0.0292406
0.109865
0.106667
0.0693063
0.108605
0.105834
0.0648574
0.111227
0.10946
0.109987
0.110247
0.0883098
0.0814755
0.0768622
0.108117
0.105915
0.0954087
0.111312
0.111312
0.0180754
0.0474627
0.0972515
0.0262491
0.090799
0.00684835
0.0472121
0.104377
0.0229209
0.0614284
0.0619818
0.0226234
0.0200147
0.0595915
0.0556672
0.0216738
0.0678226
0.0267548
0.0261242
0.0692055
0.111306
0.111282
0.111313
0.111313
0.111312
0.0364442
0.0500484
0.0652281
0.0343182
0.0116425
0.0102844
0.0998115
0.0101794
0.100756
0.0259777
0.106023
0.0927122
0.0661152
0.0131259
0.0052313
0.0979653
0.0682733
0.0269871
0.0263524
0.0699088
0.111282
0.111306
0.111313
0.111313
0.111312
0.0213332
0.0580545
0.0590419
0.0210468
0.0169422
0.0540601
0.0441957
0.0199075
0.093317
0.109585
0.0759796
0.097558
0.0330361
0.0111332
0.097184
0.0100417
0.0731614
0.0148537
0.0167554
0.101849
0.10762
0.062051
0.111158
0.0842074
0.0756465
0.103483
0.105087
0.0980808
0.111312
0.111311
0.111127
0.0939609
0.108955
0.0940106
0.111293
0.110203
0.111279
0.111302
0.111159
0.104256
0.0960436
0.111269
0.0292113
0.109878
0.106663
0.0693268
0.10876
0.107648
0.0682482
0.111265
0.109453
0.110113
0.110245
0.0878463
0.0933455
0.109636
0.0760078
0.0973156
0.0105692
0.0100662
0.00337371
0.015807
0.0280101
0.0338477
0.0145601
0.0163611
0.0286065
0.023033
0.00695648
0.0258204
0.0178642
0.00571479
0.00882338
0.0212287
0.0102196
0.071392
0.0107107
0.0868108
0.0372176
0.111238
0.11076
0.109563
0.104288
0.0694695
0.0172939
0.0161735
0.0130335
0.0534945
0.0441615
0.0180005
0.011778
0.00421355
0.111313
0.111313
0.111306
0.0457564
0.0047193
0.0141309
0.0132698
0.103244
0.0685947
0.111313
0.111313
0.111306
0.0198452
0.0584608
0.0534508
0.0213107
0.0210619
0.0597267
0.026156
0.00889641
0.0437042
0.0104773
0.00970814
0.0484553
0.0147426
0.00461175
0.0132902
0.00446292
0.00321925
0.0213545
0.0213747
0.0401296
0.111058
0.109614
0.111142
0.111265
0.00749008
0.00884529
0.0212574
0.00820834
0.0729012
0.0114697
0.085403
0.0353188
0.0210709
0.0597906
0.0261818
0.00890294
0.0437489
0.0104716
0.0105839
0.00272976
0.00504389
0.00865361
0.0208055
0.0315739
0.00850219
0.00328903
0.0330664
0.0556425
0.0136265
0.00256348
0.0155013
0.00370931
0.00543414
0.00924997
0.0248029
0.0338034
0.00965789
0.0106719
0.0527437
0.0140004
0.0129856
0.00427706
0.0296816
0.0388913
0.0292102
0.0216097
0.0789606
0.0286905
0.021418
0.0788547
0.0216793
0.026243
0.10582
0.109582
0.110818
0.110611
0.0899488
0.105914
0.110772
0.110081
0.0101696
0.00760191
0.00696648
0.00796408
0.0158874
0.0374118
0.0307672
0.00926321
0.0954351
0.0738256
0.0199164
0.0497592
0.0289902
0.017968
0.0495057
0.0178528
0.0494991
0.017248
0.0491385
0.0494559
0.0178519
0.105822
0.109581
0.110817
0.11061
0.093046
0.106667
0.110825
0.110246
0.0246352
0.00827359
0.00653821
0.00658354
0.00334964
0.0167821
0.0403031
0.0316284
0.00886388
0.0954887
0.0738706
0.0199985
0.0498364
0.0441635
0.0201776
0.00392748
0.0182775
0.0536587
0.0189763
0.0545675
0.018312
0.0544699
0.0548401
0.0189851
0.0278885
0.003364
0.0048888
0.0413018
0.016862
0.0038569
0.00419533
0.00411877
0.0083141
0.00590107
0.00435388
0.0126786
0.0132803
0.0107702
0.00547089
0.00270876
0.00726975
0.0330813
0.00494454
0.00658911
0.0163716
0.0186646
0.0400717
0.0209148
0.0504632
0.029965
0.0297993
0.0362059
0.0424087
0.00326635
0.0174591
0.00861973
0.0601507
0.0494019
0.0323568
0.00949664
0.0627404
0.00824962
0.0280261
0.0276973
0.0686921
0.0261339
0.0668745
0.0289997
0.0779907
0.022205
0.0693249
0.0215938
0.0885168
0.0701555
0.0929233
0.0650828
0.0711034
0.0474936
0.0885831
0.0497151
0.111054
0.1113
0.111139
0.111307
0.109682
0.106371
0.110192
0.0332117
0.0288879
0.0677977
0.0532561
0.0379558
0.0388405
0.00872886
0.0304981
0.0175364
0.00330007
0.0182718
0.048952
0.0395571
0.00560366
0.0138696
0.0550212
0.0632018
0.0065195
0.0191322
0.0046932
0.0144334
0.023238
0.0616182
0.0623911
0.0229266
0.0171676
0.0328651
0.0118145
0.0476982
0.0158087
0.0221295
0.0913651
0.104412
0.104002
0.0924589
0.0896799
0.0617465
0.110833
0.110985
0.10968
0.104027
0.109345
0.111287
0.111313
0.111309
0.109898
0.111196
0.110874
0.111313
0.109485
0.0696525
0.0467878
0.0162246
0.00573343
0.00411938
0.0177872
0.0471498
0.0390555
0.00565755
0.00688487
0.0220889
0.0331293
0.0533223
0.00562023
0.0239269
0.0301141
0.0303611
0.03418
0.0315177
0.0506506
0.0749176
0.0916756
0.104574
0.104109
0.0930625
0.105738
0.0957117
0.110993
0.109703
0.109888
0.111093
0.111303
0.111313
0.111304
0.111302
0.111313
0.111196
0.0214293
0.0594345
0.0593237
0.0214975
0.0118529
0.0108804
0.00441395
0.0296182
0.0157814
0.0161886
0.0201309
0.00756052
0.0589836
0.0384143
0.0391304
0.0102244
0.0106771
0.00984989
0.0217846
0.0337316
0.0155482
0.0209114
0.0412799
0.0104469
0.019231
0.0347751
0.00796324
0.0240826
0.00543268
0.0163188
0.0225221
0.0571667
0.0210693
0.048904
0.00547431
0.0294148
0.0300968
0.0329456
0.043268
0.00354623
0.031739
0.00895246
0.0659843
0.0096967
0.0667188
0.0729633
0.0240269
0.0884905
0.0705939
0.0929823
0.064776
0.0973339
0.0745544
0.0481638
0.050486
0.0851901
0.0176096
0.107169
0.111288
0.111115
0.104035
0.0577753
0.0159848
0.103378
0.11005
0.0455263
0.00944935
0.062661
0.0319478
0.0280347
0.00535418
0.027489
0.0686224
0.026218
0.0669752
0.0209044
0.0290125
0.0779933
0.00913851
0.0222166
0.016134
0.0210026
0.00754507
0.0662258
0.0381907
0.0390235
0.0122914
0.0115873
0.0100183
0.0227195
0.0348986
0.0178921
0.0215257
0.0443481
0.0106497
0.0192306
0.0348769
0.00569495
0.00294447
0.022496
0.055549
0.0570316
0.0224742
0.0555518
0.0575653
0.0745474
0.0605394
0.0605391
0.0483265
0.0770387
0.0605394
0.0605394
0.0745473
0.0605394
0.0605394
0.0428327
0.0102818
0.026561
0.0134805
0.0207835
0.0261252
0.0180089
0.0133588
0.0315538
0.00275049
0.0162957
0.0232375
0.00511923
0.00845791
0.0202826
0.0442853
0.0621143
0.0844294
0.0620415
0.0451701
0.0668756
0.0910518
0.080862
0.0301243
0.028323
0.0711952
0.0743643
0.0549994
0.0285426
0.111313
0.111313
0.0345863
0.0581613
0.071473
0.0586747
0.0234477
0.0236074
0.0623768
0.0603286
0.0544971
0.0300654
0.060009
0.0407401
0.0356596
0.0250427
0.0462668
0.0130806
0.0211163
0.0105017
0.00527058
0.0127781
0.0365252
0.0396034
0.0579259
0.0716379
0.0531109
0.0165228
0.0205191
0.0630928
0.0594353
0.0669085
0.0695249
0.0630936
0.0669087
0.0695645
0.0186451
0.0202336
0.0210045
0.0147935
0.0504182
0.0204145
0.0558076
0.0184668
0.0377664
0.0427053
0.0166065
0.0165796
0.0291302
0.00996651
0.0451718
0.051337
0.0249594
0.0350814
0.0521301
0.0126134
0.0265304
0.0117259
0.0133949
0.060543
0.0610864
0.0601298
0.0560448
0.110652
0.106289
0.111278
0.109588
0.0776221
0.101773
0.0444889
0.036276
0.0918884
0.0210052
0.0412071
0.0503718
0.0860101
0.0809159
0.0938057
0.100061
0.0515225
0.103312
0.109767
0.11127
0.109635
0.103286
0.0333088
0.0228238
0.071558
0.0657501
0.108409
0.094914
0.0471349
0.0341615
0.0621287
0.0438386
0.110931
0.105266
0.107981
0.00467749
0.0986368
0.0308806
0.0468233
0.0745333
0.0543462
0.0434436
0.0798547
0.109096
0.107026
0.111268
0.109512
0.0998805
0.0514744
0.0715563
0.0655011
0.097476
0.0716923
0.0676503
0.00452239
0.0943267
0.0201021
0.068359
0.00722831
0.00571766
0.0433773
0.0415077
0.0298235
0.0963361
0.0823485
0.0802076
0.0879211
0.0319383
0.0774083
0.101353
0.0359089
0.0822271
0.110677
0.106288
0.111284
0.109588
0.109919
0.110692
0.110539
0.111169
0.111085
0.0963918
0.111258
0.111222
0.111202
0.1111
0.109809
0.111023
0.0963904
0.111252
0.0448804
0.0666563
0.0426776
0.0734401
0.0605383
0.0605393
0.0586364
0.0605254
0.0605375
0.0745472
0.0605381
0.0605387
0.0584642
0.0605393
0.0605344
0.0571104
0.0605232
0.0605297
0.0734237
0.0605386
0.0605393
0.0588863
0.0605291
0.0605369
0.0745472
0.0605387
0.0605393
0.0600868
0.0605393
0.060539
0.059716
0.0605308
0.0605384
0.0223798
0.0542661
0.062924
0.0947545
0.0741326
0.0970019
0.111178
0.111296
0.106563
0.109644
0.013318
0.0469417
0.0352566
0.0287482
0.110576
0.107384
0.111292
0.110988
0.0935014
0.0981108
0.111313
0.111313
0.111313
0.0998917
0.0988689
0.106219
0.0644421
0.0799759
0.109463
0.109231
0.0809826
0.101948
0.102967
0.105111
0.109684
0.110988
0.0877318
0.0880901
0.101695
0.10171
0.109347
0.103163
0.0962693
0.0832004
0.0767339
0.08827
0.108281
0.0939359
0.0690657
0.0691363
0.106389
0.0524131
0.110245
0.11119
0.0756122
0.0667373
0.111313
0.111313
0.111313
0.111313
0.111313
0.111246
0.111313
0.111313
0.0864935
0.0826027
0.0683734
0.00773706
0.0757057
0.0403628
0.0452191
0.0227726
0.0498919
0.0919757
0.0716148
0.0713718
0.0777371
0.0160907
0.0374796
0.0314549
0.0298365
0.109402
0.110975
0.0829937
0.0850122
0.0966207
0.0937527
0.105311
0.0955187
0.0939439
0.0733832
0.101766
0.0700785
0.106871
0.0932568
0.0677394
0.089674
0.109498
0.10957
0.111311
0.111251
0.0645127
0.064213
0.111313
0.111313
0.111313
0.111313
0.111313
0.111244
0.111313
0.111313
0.111313
0.0452252
0.0227759
0.0494648
0.0908166
0.0716095
0.0713689
0.0777352
0.00845572
0.00450229
0.0438873
0.00687324
0.0257345
0.0791944
0.0771401
0.0902551
0.111311
0.111313
0.111311
0.0809196
0.0340077
0.0833923
0.0607248
0.0797781
0.109518
0.108941
0.10457
0.086918
0.100145
0.106925
0.0352137
0.0240598
0.00712229
0.110413
0.104388
0.111218
0.11035
0.0942199
0.0979329
0.0249582
0.039158
0.0206797
0.0506348
0.0129862
0.00363913
0.0417956
0.0320057
0.0415045
0.018547
0.0206131
0.0515324
0.0144429
0.00484372
0.0415757
0.0557052
0.0192543
0.0296194
0.0645432
0.0319389
0.0525268
0.103338
0.0602453
0.0605394
0.0467277
0.0614277
0.026814
0.0403528
0.0645435
0.0319621
0.0575739
0.103436
0.0602462
0.0605394
0.0467385
0.0614277
0.00282513
0.0634379
0.0715148
0.0634364
0.0715183
0.00812249
0.00547914
0.0230133
0.0209023
0.0179341
0.0364967
0.0327345
0.00473189
0.0539702
0.0539991
0.0540003
0.053993
0.00727409
0.0199486
0.00312112
0.00797664
0.00583545
0.00240398
0.0235627
0.0229753
0.0132828
0.0178968
0.0539903
0.0539614
0.0539975
0.0566112
0.0390321
0.0499996
0.0377522
0.0211507
0.00346168
0.00980763
0.0237408
0.044072
0.0253209
0.0175372
0.00511856
0.0156445
0.0339591
0.0260119
0.0334
0.0179983
0.0589841
0.0516495
0.0540695
0.00499415
0.0543667
0.0473998
0.0419845
0.0243745
0.0166707
0.00396719
0.00394707
0.0335297
0.052166
0.0446166
0.037493
0.013264
0.0304637
0.00467925
0.0184841
0.00550039
0.0129392
0.0763674
0.100245
0.0789826
0.102267
0.0556705
0.0269631
0.102383
0.0858854
0.0578232
0.0531731
0.0943702
0.0679672
0.0592279
0.0395423
0.0658064
0.0680736
0.0711893
0.00994666
0.033904
0.0836667
0.0806927
0.0187903
0.0712205
0.0984313
0.0528123
0.0902275
0.101521
0.0599636
0.0838442
0.0619912
0.0324637
0.0768825
0.0921794
0.0340268
0.109694
0.00884987
0.0172834
0.0506655
0.0409648
0.0340882
0.0964791
0.0733508
0.0538168
0.0622286
0.0722421
0.0965661
0.0313054
0.0520685
0.00843589
0.0623719
0.0395056
0.0157154
0.0483912
0.061076
0.0892118
0.0666083
0.0252398
0.0663536
0.025366
0.0217458
0.109063
0.103643
0.11093
0.109645
0.110775
0.0513286
0.0156813
0.056639
0.00307313
0.0167494
0.0372648
0.0199884
0.0981648
0.066441
0.057208
0.0619104
0.0703821
0.09676
0.0222789
0.0515939
0.00832695
0.0278039
0.0335972
0.0070504
0.0189716
0.0208191
0.0307952
0.0306447
0.013307
0.0939443
0.105425
0.0669014
0.0252744
0.0663916
0.0255342
0.0729042
0.0298209
0.109716
0.110926
0.10966
0.110928
0.111312
0.111312
0.0401203
0.0796476
0.0300707
0.0484222
0.081227
0.0540939
0.0929365
0.103419
0.0965273
0.0758135
0.0994067
0.0658954
0.0797037
0.091954
0.0660557
0.101086
0.102565
0.0382783
0.0883848
0.0442224
0.0935603
0.0240002
0.0200667
0.00395343
0.0189909
0.0029278
0.0371857
0.0756446
0.100767
0.086332
0.103978
0.0145274
0.055238
0.0267581
0.0960785
0.0838109
0.0441694
0.0586185
0.0764722
0.0378316
0.0610739
0.0579299
0.0283284
0.0656611
0.0643792
0.0694849
0.0108894
0.0406392
0.0886456
0.0881193
0.032843
0.0334719
0.0827141
0.0341905
0.0766161
0.0965186
0.0712298
0.0984334
0.0830513
0.0902194
0.101525
0.103955
0.101077
0.0405389
0.083843
0.0620027
0.0400498
0.0796071
0.0300643
0.0482545
0.0812555
0.0552499
0.0964119
0.103409
0.0965116
0.0844508
0.0993935
0.0663536
0.0748992
0.0829692
0.0919796
0.0663225
0.102464
0.103337
0.0410222
0.0902289
0.0454114
0.0938974
0.00256763
0.00872798
0.0226163
0.023326
0.00695274
0.00461548
0.0114912
0.106024
0.109772
0.0921781
0.108101
0.028363
0.0267035
0.0181425
0.0590713
0.0965856
0.0800471
0.11056
0.110795
0.0696096
0.0835414
0.0927908
0.074637
0.0949598
0.0707572
0.0991706
0.0750098
0.0719522
0.096105
0.0938989
0.0419467
0.0672069
0.106592
0.0742865
0.0457955
0.0940803
0.082678
0.0822753
0.0760267
0.0959231
0.0971718
0.102814
0.106514
0.0986427
0.106627
0.0217746
0.00803882
0.0609045
0.0872403
0.0382531
0.0831432
0.0609282
0.088653
0.0931191
0.105457
0.0951451
0.104708
0.0253632
0.025908
0.0665453
0.0675023
0.0218186
0.021693
0.0886902
0.0610752
0.00500727
0.0391815
0.0589995
0.0140129
0.106208
0.0098078
0.0966932
0.110096
0.0784805
0.109573
0.111306
0.111313
0.111313
0.111162
0.111311
0.111313
0.111313
0.108724
0.109929
0.0844201
0.0767344
0.0911425
0.0989966
0.0832871
0.0949674
0.0763575
0.0976742
0.00729007
0.0288236
0.0550877
0.0746157
0.00708465
0.0755223
0.0355045
0.104551
0.0923987
0.100894
0.0250686
0.024403
0.0658848
0.0644521
0.0861766
0.0981421
0.0824523
0.100849
0.017362
0.022719
0.0453546
0.102558
0.0713406
0.0943122
0.0670158
0.041424
0.0604787
0.00331019
0.00331019
0.0967389
0.111174
0.111313
0.111309
0.107118
0.111275
0.0375727
0.00776307
0.093498
0.10513
0.100928
0.108984
0.0838711
0.105027
0.0027349
0.0359158
0.00739804
0.0141244
0.0419752
0.0194425
0.0648774
0.0263697
0.0832481
0.068513
0.0740693
0.109758
0.110475
0.0917558
0.103693
0.0773205
0.0736498
0.0959657
0.0902912
0.0708909
0.0810546
0.0621935
0.0918664
0.0600402
0.0816734
0.105575
0.0832111
0.0602086
0.105953
0.0944209
0.0619956
0.0773396
0.0106116
0.0488373
0.0479501
0.0276332
0.0401519
0.0846863
0.100032
0.00341328
0.0884375
0.102622
0.0641812
0.0520784
0.0209937
0.064613
0.054023
0.0884092
0.102003
0.0884153
0.102617
0.020996
0.0539724
0.0646348
0.0646655
0.054026
0.0882534
0.100466
0.0619461
0.0773163
0.00669222
0.00964925
0.0573783
0.07062
0.0258555
0.04355
0.0846794
0.100035
0.0884384
0.102623
0.0785209
0.077679
0.0205815
0.058147
0.0790783
0.0808084
0.0884098
0.102005
0.0884119
0.102621
0.0195198
0.0577448
0.0664402
0.0759912
0.0782311
0.0804838
0.088263
0.101163
0.038655
0.0446052
0.0393819
0.0163073
0.0160222
0.00357173
0.0345211
0.0426574
0.0259891
0.0284918
0.0339923
0.0354963
0.0151422
0.0127963
0.0161131
0.00950407
0.0929221
0.10852
0.0162634
0.0467914
0.0178755
0.0426471
0.0980271
0.109649
0.0280775
0.0447693
0.0514585
0.0588332
0.0761343
0.0805993
0.110589
0.110814
0.0297938
0.111038
0.110197
0.105063
0.0937758
0.110575
0.108307
0.0931694
0.106206
0.11131
0.111299
0.110863
0.110828
0.111309
0.111212
0.111302
0.11121
0.110359
0.111194
0.101514
0.109572
0.0986062
0.106866
0.111234
0.110994
0.0732916
0.0434028
0.0812575
0.103507
0.109397
0.105998
0.0959619
0.100971
0.101075
0.10832
0.0603263
0.0884103
0.0939859
0.102634
0.110299
0.0973036
0.10953
0.0890857
0.082546
0.110986
0.110867
0.106699
0.110866
0.107435
0.110681
0.11106
0.110637
0.100669
0.10101
0.0806803
0.0986136
0.0775737
0.101105
0.106447
0.108899
0.0868271
0.105636
0.108207
0.0935147
0.101597
0.00664952
0.0481133
0.0475547
0.0540176
0.0688693
0.0782901
0.0966164
0.0997426
0.0937952
0.103753
0.0303066
0.0740849
0.0752143
0.0868375
0.0288837
0.0672361
0.108542
0.0766516
0.0884346
0.0410448
0.0718179
0.0913076
0.107854
0.00257035
0.0149815
0.00826405
0.035613
0.0105332
0.0118192
0.0166404
0.0302111
0.00501333
0.007368
0.0379537
0.0618014
0.0364252
0.0661588
0.0895974
0.0150919
0.0355295
0.0445001
0.0285068
0.0810303
0.0968647
0.0732174
0.0441188
0.0283901
0.0817822
0.0973013
0.0735484
0.0198089
0.0693204
0.0588323
0.0707523
0.10003
0.0798505
0.00812314
0.0271899
0.0407696
0.0200206
0.0112123
0.00474586
0.0316272
0.0138619
0.0315001
0.0708218
0.0295072
0.0766602
0.0615425
0.084397
0.0261411
0.0626407
0.037987
0.0338009
0.0162027
0.0133782
0.0137212
0.0712609
0.100282
0.0886881
0.104617
0.10251
0.108156
0.10519
0.107279
0.0826312
0.10053
0.0977531
0.10538
0.104709
0.00841947
0.0769529
0.0892668
0.0609531
0.0417205
0.0214029
0.00762536
0.0230815
0.00828349
0.0276218
0.0193212
0.092519
0.108342
0.0252895
0.061586
0.023797
0.065571
0.030112
0.0469961
0.0594566
0.0671589
0.100941
0.110044
0.0786053
0.086366
0.110556
0.110902
0.0818448
0.103477
0.0773524
0.0984995
0.103429
0.107868
0.104188
0.106756
0.0941842
0.106643
0.111063
0.110205
0.105273
0.0938272
0.0245467
0.00900501
0.110704
0.108808
0.0932427
0.10623
0.111307
0.111299
0.111021
0.111044
0.111301
0.111242
0.111304
0.111263
0.110361
0.111194
0.101723
0.101513
0.109572
0.0986093
0.0647583
0.106876
0.111234
0.110994
0.0732509
0.0434229
0.0817184
0.103681
0.109394
0.105988
0.0959477
0.107011
0.102111
0.108314
0.0603592
0.0884834
0.0939829
0.103203
0.110449
0.101229
0.110207
0.0906009
0.088684
0.111082
0.111052
0.106513
0.110857
0.107802
0.110701
0.111058
0.110637
0.10005
0.101347
0.0887262
0.104605
0.102619
0.108193
0.10727
0.0826654
0.100533
0.0977527
0.105259
0.104509
0.10246
0.111306
0.111282
0.10831
0.111067
0.109173
0.110494
0.0868011
0.0879382
0.10068
0.0986887
0.104586
0.0997314
0.105169
0.0981464
0.097988
0.0984019
0.0809985
0.0266256
0.0833324
0.093743
0.111313
0.111313
0.111313
0.111313
0.111313
0.111312
0.111305
0.0462473
0.0860753
0.0856565
0.0980458
0.0999392
0.0949655
0.082732
0.0928956
0.0791086
0.0972899
0.0981961
0.0808183
0.0261875
0.111313
0.111313
0.111313
0.111313
0.111312
0.111306
0.0477013
0.00293123
0.00615048
0.111285
0.111083
0.102885
0.109781
0.103716
0.0186347
0.022844
0.0406616
0.0480281
0.0520575
0.00847055
0.0597679
0.0384493
0.0181247
0.0224491
0.0396997
0.0475869
0.0513307
0.00838265
0.0594015
0.038101
0.111313
0.111313
0.111309
0.111313
0.111309
0.111313
0.111312
0.029389
0.0125363
0.0526947
0.0526677
0.0775175
0.110859
0.0959866
0.0775173
0.0859021
0.110859
0.0775634
0.0940398
0.0931954
0.0759505
0.0722698
0.0583193
0.0603623
0.108769
0.0984101
0.0924218
0.0760571
0.0701789
0.0572168
0.0601375
0.108779
0.0986184
0.0805313
0.101503
0.102652
0.00801757
0.0233134
0.00908107
0.0312834
0.0794255
0.109712
0.106675
0.0233706
0.107954
0.110228
0.0794254
0.109712
0.106675
0.0233714
0.107968
0.110228
0.0335881
0.0304973
0.111313
0.111313
0.111313
0.111313
0.111313
0.111303
0.111313
0.111313
0.0335886
0.0304978
0.111313
0.111313
0.111313
0.111313
0.111313
0.110632
0.111307
0.111313
0.111307
0.111309
0.107161
0.101913
0.0962343
0.0997568
0.109815
0.100643
0.107976
0.051996
0.111307
0.111309
0.106922
0.101912
0.0962319
0.0997549
0.111312
0.111312
0.10793
0.0952577
0.0570706
0.0903141
0.104767
0.0518042
0.00654893
0.0157677
0.00537113
0.00274598
0.0729657
0.0725795
0.0993205
0.109014
0.0773536
0.0961032
0.0171492
0.00990826
0.0217447
0.0186665
0.0084383
0.0729647
0.0725792
0.0993204
0.109013
0.0773543
0.0804193
0.107523
0.0574692
0.0804204
0.107522
0.0574691
0.00427665
0.010661
0.0404446
0.0448184
0.0413243
0.0159525
0.00363041
0.0162852
0.00920187
0.0435417
0.0441205
0.032887
0.0333423
0.028433
0.036001
0.0164126
0.0322155
0.00969958
0.017174
0.0244932
0.111101
0.111149
0.107636
0.110176
0.111245
0.111121
0.108688
0.11098
0.0229579
0.0229298
0.0253365
0.0241018
0.109028
0.103281
0.110927
0.109686
0.103289
0.109017
0.110766
0.0146739
0.0752409
0.0273536
0.030014
0.0255279
0.076722
0.0498718
0.0411727
0.0372221
0.0564363
0.0554935
0.087674
0.0223792
0.0208356
0.00755167
0.0176806
0.110759
0.107526
0.104164
0.106833
0.0146753
0.00678604
0.0752393
0.0273531
0.0254717
0.0767171
0.00831791
0.0633287
0.0865935
0.0579151
0.0103679
0.00942991
0.111128
0.111151
0.107636