/*--------------------------------*- C++ -*----------------------------------*\
| =========                 |                                                 |
| \\      /  F ield         | OpenFOAM: The Open Source CFD Toolbox           |
|  \\    /   O peration     | Version:  2206                                  |
|   \\  /    A nd           | Website:  www.openfoam.com                      |
|    \\/     M anipulation  |                                                 |
\*---------------------------------------------------------------------------*/
FoamFile
{
    version     2.0;
    format      ascii;
    arch        "LSB;label=32;scalar=64";
    class       volScalarField;
    location    "0";
    object      thicknessFraction;
}
// * * * * * * * * * * * * * * * * * * * * * * * * * * * * * * * * * * * * * //

dimensions      [0 0 0 0 0 0 0];

internalField   uniform 0;

boundaryField
{
    movingWall
    {
        type            fixedValue;
        value           uniform 0;
    }
    front
    {
        type            fixedValue;
        value           uniform 0;
    }
    back
    {
        type            fixedValue;
        value           uniform 0;
    }
    fuselage
    {
        type            fixedValue;
        value           nonuniform List<scalar> 
10795
(
0
0
0
0
0
0
0
0
0
0
0
0
0
0
0
0
0
0
0
0
0
0
0
0
0
0
0
0
0
0
0
0
0
0
0
0
0
0
0
0
0
0
0
0
0
0
0
0
0
0
0
0
0
0
0
0
0
0
0
0
0
0
0
0
0
0
0
0
0
0
0
0
0
0
0
0
0
0
0
0
0
0
0
0
0
0
0
0
0
0
0
0
0
0
0
0
0
0
0
0
0
0
0
0
0
0
0
0
0
0
0
0
0
0
0
0
0
0
0
0
0
0
0
0
0
0
0
0
0
0
0
0
0
0
0
0
0
0
0
0
0
0
0
0
0
0
0
0
0
0
0
0
0
0
0
0
0
0
0
0
0
0
0
0
0
0
0
0
0
0
0
0
0
0
0
0
0
0
0
0
0
0
0
0
0
0
0
0
0
0
0
0
0
0
0
0
0
0
0
0
0
0
0
0
0
0
0
0
0
0
0
0
0
0
0
0
0
0
0
0
0
0
0
0
0
0
0
0
0
0
0
0
0
0
0
0
0
0
0
0
0
0
0
0
0
0
0
0
0
0
0
0
0
0
0
0
0
0
0
0
0
0
0
0
0
0
0
0
0
0
0
0
0
0
0
0
0
0
0
0
0
0
0
0
0
0
0
0
0
0
0
0
0
0
0
0
0
0
0
0
0
0
0
0
0
0
0
0
0
0
0
0
0
0
0
0
0
0
0
0
0
0
0
0
0
0
0
0
0
0
0
0
0
0
0
0
0
0
0
0
0
0
0
0
0
0
0
0
0
0
0
0
0
0
0
0
0
0
0
0
0
0
0
0
0
0
0
0
0
0
0
0
0
0
0
0
0
0
0
0
0
0
0
0
0
0
0
0
0
0
0
0
0
0
0
0
0
0
0
0
0
0
0
0
0
0
0
0
0
0
0
0
0
0
0
0
0
0
0
0
0
0
0
0
0
0
0
0
0
0
0
0
0
0
0
0
0
0
0
0
0
0
0
0
0
0
0
0
0
0
0
0
0
0
0
0
0
0
0
0
0
0
0
0
0
0
0
0
0
0
0
0
0
0
0
0
0
0
0
0
0
0
0
0
0
0
0
0
0
0
0
0
0
0
0
0
0
0
0
0
0
0
0
0
0
0
0
0
0
0
0
0
0
0
0
0
0
0
0
0
0
0
0
0
0
0
0
0
0
0
0
0
0
0
0
0
0
0
0
0
0
0
0
0
0
0
0
0
0
0
0
0
0
0
0
0
0
0
0
0
0
0
0
0
0
0
0
0
0
0
0
0
0
0
0
0
0
0
0
0
0
0
0
0
0
0
0
0
0
0
0
0
0
0
0
0
0
0
0
0
0
0
0
0
0
0
0
0
0
0
0
0
0
0
0
0
0
0
0
0
0
0
0
0
0
0
0
0
0
0
0
0
0
0
0
0
0
0
0
0
0
0
0
0
0
0
0
0
0
0
0
0
0
0
0
0
0
0
0
0
0
0
0
0
0
0
0
0
0
0
0
0
0
0
0
0
0
0
0
0
0
0
0
0
0
0
0
0
0
0
0
0
0
0
0
0
0
0
0
0
0
0
0
0
0
0
0
0
0
0
0
0
0
0
0
0
0
0
0
0
0
0
0
0
0
0
0
0
0
0
0
0
0
0
0
0
0
0
0
0
0
0
0
0
0
0
0
0
0
0
0
0
0
0
0
0
0
0
0
0
0
0
0
0
0
0
0
0
0
0
0
0
0
0
0
0
0
0
0
0
0
0
0
0
0
0
0
0
0
0
0
0
0
0
0
0
0
0
0
0
0
0
0
0
0
0
0
0
0
0
0
0
0
0
0
0
0
0
0
0
0
0
0
0
0
0
0
0
0
0
0
0
0
0
0
0
0
0
0
0
0
0
0
0
0
0
0
0
0
0
0
0
0
0
0
0
0
0
0
0
0
0
0
0
0
0
0
0
0
0
0
0
0
0
0
0
0
0
0
0
0
0
0
0
0
0
0
0
0
0
0
0
0
0
0
0
0
0
0
0
0
0
0
0
0
0
0
0
0
0
0
0
0
0
0
0
0
0
0
0
0
0
0
0
0
0
0
0
0
0
0
0
0
0
0
0
0
0
0
0
0
0
0
0
0
0
0
0
0
0
0
0
0
0
0
0
0
0
0
0
0
0
0
0
0
0
0
0
0
0
0
0
0
0
0
0
0
0
0
0
0
0
0
0
0
0
0
0
0
0
0
0
0
0
0
0
0
0
0
0
0
0
0
0
0
0
0
0
0
0
0
0
0
0
0
0
0
0
0
0
0
0
0
0
0
0
0
0
0
0
0
0
0
0
0
0
0
0
0
0
0
0
0
0
0
0
0
0
0
0
0
0
0
0
0
0
0
0
0
0
0
0
0
0
0
0
0
0
0
0
0
0
0
0
0
0
0
0
0
0
0
0
0
0
0
0
0
0
0
0
0
0
0
0
0
0
0
0
0
0
0
0
0
0
0
0
0
0
0
0
0
0
0
0
0
0
0
0
0
0
0
0
0
0
0
0
0
0
0
0
0
0
0
0
0
0
0
0
0
0
0
0
0
0
0
0
0
0
0
0
0
0
0
0
0
0
0
0
0
0
0
0
0
0
0
0
0
0
0
0
0
0
0
0
0
0
0
0
0
0
0
0
0
0
0
0
0
0
0
0
0
0
0
0
0
0
0
0
0
0
0
0
0
0
0
0
0
0
0
0
0
0
0
0
0
0
0
0
0
0
0
0
0
0
0
0
0
0
0
0
0
0
0
0
0
0
0
0
0
0
0
0
0
0
0
0
0
0
0
0
0
0
0
0
0
0
0
0
0
0
0
0
0
0
0
0
0
0
0
0
0
0
0
0
0
0
0
0
0
0
0
0
0
0
0
0
0
0
0
0
0
0
0
0
0
0
0
0
0
0
0
0
0
0
0
0
0
0
0
0
0
0
0
0
0
0
0
0
0
0
0
0
0
0
0
0
0
0
0
0
0
0
0
0
0
0
0
0
0
0
0
0
0
0
0
0
0
0
0
0
0
0
0
0
0
0
0
0
0
0
0
0
0
0
0
0
0
0
0
0
0
0
0
0
0
0
0
0
0
0
0
0
0
0
0
0
0
0
0
0
0
0
0
0
0
0
0
0
0
0
0
0
0
0
0
0
0
0
0
0
0
0
0
0
0
0
0
0
0
0
0
0
0
0
0
0
0
0
0
0
0
0
0
0
0
0
0
0
0
0
0
0
0
0
0
0
0
0
0
0
0
0
0
0
0
0
0
0
0
0
0
0
0
0
0
0
0
0
0
0
0
0
0
0
0
0
0
0
0
0
0
0
0
0
0
0
0
0
0
0
0
0
0
0
0
0
0
0
0
0
0
0
0
0
0
0
0
0
0
0
0
0
0
0
0
0
0
0
0
0
0
0
0
0
0
0
0
0
0
0
0
0
0
0
0
0
0
0
0
0
0
0
0
0
0
0
0
0
0
0
0
0
0
0
0
0
0
0
0
0
0
0
0
0
0
0
0
0
0
0
0
0
0
0
0
0
0
0
0
0
0
0
0
0
0
0
0
0
0
0
0
0
0
0
0
0
0
0
0
0
0
0
0
0
0
0
0
0
0
0
0
0
0
0
0
0
0
0
0
0
0
0
0
0
0
0
0
0
0
0
0
0
0
0
0
0
0
0
0
0
0
0
0
0
0
0
0
0
0
0
0
0
0
0
0
0
0
0
0
0
0
0
0
0
0
0
0
0
0
0
0
0
0
0
0
0
0
0
0
0
0
0
0
0
0
0
0
0
0
0
0
0
0
0
0
0
0
0
0
0
0
0
0
0
0
0
0
0
0
0
0
0
0
0
0
0
0
0
0
0
0
0
0
0
0
0
0
0
0
0
0
0
0
0
0
0
0
0
0
0
0
0
0
0
0
0
0
0
0
0
0
0
0
0
0
0
0
0
0
0
0
0
0
0
0
0
0
0
0
0
0
0
0
0
0
0
0
0
0
0
0
0
0
0
0
0
0
0
0
0
0
0
0
0
0
0
0
0
0
0
0
0
0
0
0
0
0
0
0
0
0
0
0
0
0
0
0
0
0
0
0
0
0
0
0
0
0
0
0
0
0
0
0
0
0
0
0
0
0
0
0
0
0
0
0
0
0
0
0
0
0
0
0
0
0
0
0
0
0
0
0
0
0
0
0
0
0
0
0
0
0
0
0
0
0
0
0
0
0
0
0
0
0
0
0
0
0
0
0
0
0
0
0
0
0
0
0
0
0
0
0
0
0
0
0
0
0
0
0
0
0
0
0
0
0
0
0
0
0
0
0
0
0
0
0
0
0
0
0
0
0
0
0
0
0
0
0
0
0
0
0
0
0
0
0
0
0
0
0
0
0
0
0
0
0
0
0
0
0
0
0
0
0
0
0
0
0
0
0
0
0
0
0
0
0
0
0
0
0
0
0
0
0
0
0
0
0
0
0
0
0
0
0
0
0
0
0
0
0
0
0
0
0
0
0
0
0
0
0
0
0
0
0
0
0
0
0
0
0
0
0
0
0
0
0
0
0
0
0
0
0
0
0
0
0
0
0
0
0
0
0
0
0
0
0
0
0
0
0
0
0
0
0
0
0
0
0
0
0
0
0
0
0
0
0
0
0
0
0
0
0
0
0
0
0
0
0
0
0
0
0
0
0
0
0
0
0
0
0
0
0
0
0
0
0
0
0
0
0
0
0
0
0
0
0
0
0
0
0
0
0
0
0
0
0
0
0
0
0
0
0
0
0
0
0
0
0
0
0
0
0
0
0
0
0
0
0
0
0
0
0
0
0
0
0
0
0
0
0
0
0
0
0
0
0
0
0
0
0
0
0
0
0
0
0
0
0
0
0
0
0
0
0
0
0
0
0
0
0
0
0
0
0
0
0
0
0
0
0
0
0
0
0
0
0
0
0
0
0
0
0
0
0
0
0
0
0
0
0
0
0
0
0
0
0
0
0
0
0
0
0
0
0
0
0
0
0
0
0
0
0
0
0
0
0
0
0
0
0
0
0
0
0
0
0
0
0
0
0
0
0
0
0
0
0
0
0
0
0
0
0
0
0
0
0
0
0
0
0
0
0
0
0
0
0
0
0
0
0
0
0
0
0
0
0
0
0
0
0
0
0
0
0
0
0
0
0
0
0
0
0
0
0
0
0
0
0
0
0
0
0
0
0
0
0
0
0
0
0
0
0
0
0
0
0
0
0
0
0
0
0
0
0
0
0
0
0
0
0
0
0
0
0
0
0
0
0
0
0
0
0
0
0
0
0
0
0
0
0
0
0
0
0
0
0.231601
0.669882
0.669927
0.670408
0.669789
0.252488
0.344155
0.190893
0.338519
0.185245
0.317821
0.354373
0.162694
0.539142
0.383932
0.395061
0.535921
0.430419
0.416349
0.358251
0.27213
0.69837
0.249962
0.999999
0.489479
0.491238
0.52699
0.952391
0.999956
1
0.999978
0.273429
0.111009
0.457826
0.506218
0.950302
0.999956
1
0.999978
0.26572
0.108296
0.354975
0.268685
0.693924
0.999999
0.297968
0.734036
0.245092
0.669973
0.50302
0.669786
0.542922
0.498747
0.66998
0.511417
0.669789
0.542712
0.514995
0.568877
0.0875941
0.184872
0.166648
0.810659
0.883222
0.364258
0.999685
0.939828
0.273483
0.968614
0.999548
0.4801
0.942443
0.464394
0.60202
1
0.736769
0.702993
0.628041
0.878169
0.540006
0.219957
0.760505
0.532713
1
0.999998
0.914099
0.999997
0.387751
0.161772
0.372194
0.33517
0.13611
0.868775
0.534618
0.756042
0.523139
1
0.999998
0.913579
0.999997
0.614427
0.55179
0.450254
0.380753
0.158886
0.144783
0.0759633
0.0263231
0.363347
0.184878
0.308859
0.625075
0.881253
0.35281
0.999999
0.289466
0.697342
0.999642
0.861843
0.307731
0.964744
0.998549
0.48043
0.943833
0.471885
0.59817
0.614815
0.552211
0.458779
0.0246657
0.0640441
0.0793724
0.0762272
0.168841
0.176967
0.221199
0.0936589
0.16558
0.322716
0.0276718
0.112306
0.0565826
0.173458
0.199482
0.227105
0.0625088
0.395365
0.230976
0.142571
0.105326
0.488141
0.0300201
0.445577
0.444755
0.429365
0.444748
0.0675918
0.271876
0.189472
0.154959
0.199175
0.185051
0.062342
0.434874
0.221173
0.146445
0.331419
0.503277
0.0290077
0.465369
0.492724
0.475245
0.493159
0.076997
0.165441
0.471804
0.103708
0.235713
0.148351
0.427816
0.352039
0.363759
0.465753
0.181489
0.522195
0.50851
0.269402
0.141055
0.487319
0.100828
0.114093
0.164252
0.146927
0.807808
0.310477
0.901535
0.610812
0.246236
0.901949
0.529015
0.315182
0.633985
0.253653
0.65443
0.809619
0.321208
0.327656
0.19698
0.879059
0.340185
0.298331
0.203123
0.40731
0.851601
0.937599
0.632978
0.616021
0.807167
0.655748
0.439111
0.463437
0.302613
0.891914
0.816688
0.998832
0.991882
0.382365
0.105499
0.447577
0.186696
0.0841524
0.754917
0.578197
0.754592
0.48202
0.246319
0.909015
0.195514
0.208621
0.126498
0.798346
0.809187
0.929083
0.999901
0.986043
0.984868
0.939415
1
1
0.460647
0.349339
0.0853873
0.0238992
0.101345
0.447129
0.248032
0.0639849
0.789907
0.596231
0.750906
0.0828547
0.273493
0.156006
0.378415
0.248073
0.258824
0.136434
0.918245
0.920765
0.0455487
0.937186
0.944175
0.957302
0.984374
0.986374
0.999901
0.984778
0.99268
1
1
0.671309
0.666734
0.863584
0.393308
0.761933
0.701838
0.967554
0.611715
0.712051
0.531262
0.492293
0.479685
0.369764
0.151399
0.0355163
0.0526254
0.167773
0.355417
0.80715
0.292911
0.922654
0.608385
0.236054
0.878999
0.535346
0.287377
0.275018
0.39325
0.661277
0.789213
0.28317
0.427211
0.215804
0.163795
0.911092
0.426981
0.44218
0.351044
0.458976
0.479407
0.310591
0.744136
0.808112
0.997922
0.986106
0.406034
0.851602
0.937603
0.631512
0.617254
0.807156
0.656004
0.671256
0.670364
0.863628
0.382012
0.764855
0.703447
0.971284
0.61766
0.713266
0.542573
0.500985
0.480962
0.235292
0.961932
0.902623
0.370915
0.645252
0.998564
0.664832
0.753088
0.399608
0.467457
0.827606
0.794885
0.671143
0.196443
0.28142
0.168476
0.329214
0.79678
0.796817
0.373074
0.203546
0.105908
0.332621
0.100934
0.700989
0.641472
0.934984
0.777093
0.25307
0.246075
0.172186
0.344847
0.389917
0.124138
0.327227
0.101206
0.946356
0.823007
0.415252
0.402775
0.686525
0.997161
0.800513
0.507716
0.52213
0.886922
0.522974
0.515905
0.900566
0.300675
0.308322
0.785039
0.0606838
0.794506
0.560497
0.967755
0.994389
0.581097
0.792548
0.794468
0.870189
0.580331
0.994104
0.581102
0.785218
0.522515
0.624506
0.900849
0.287135
0.308642
0.785036
0.0590918
0.794515
0.684408
0.369735
0.967803
0.994389
0.711054
0.792553
0.794471
0.366238
0.912523
0.640114
0.994422
0.709645
0.785286
0.447102
0.158875
0.535804
0.923308
0.953837
0.473211
0.998676
0.289398
0.998291
0.843229
0.973407
0.843914
0.999823
0.984327
0.999783
0.999819
0.998607
0.936614
0.862615
0.999591
0.525376
0.986989
0.958265
0.622624
0.975669
0.950775
0.582657
0.99923
0.983352
0.988088
0.990421
0.793345
0.731949
0.690505
0.971289
0.951505
0.85712
0.999994
0.999991
0.162384
0.426389
0.873674
0.235813
0.815707
0.0615233
0.424138
0.937692
0.411827
0.551852
0.556824
0.406482
0.35961
0.53535
0.500095
0.389421
0.609295
0.480713
0.469382
0.621719
0.999936
0.999716
0.999995
1
0.99999
0.327403
0.449618
0.585988
0.308303
0.104593
0.0923913
0.896673
0.182896
0.905154
0.233375
0.952473
0.832895
0.593957
0.117919
0.0469963
0.880088
0.613345
0.484886
0.473482
0.628037
0.999718
0.999937
0.999995
1
0.99999
0.383301
0.521542
0.530413
0.378155
0.304406
0.485658
0.397039
0.357684
0.838329
0.984474
0.682575
0.876428
0.296785
0.100017
0.873068
0.180423
0.657257
0.13344
0.150524
0.914975
0.966825
0.557445
0.998603
0.756491
0.679582
0.92966
0.944062
0.881125
0.999993
0.999983
0.998331
0.844114
0.978813
0.84456
0.99982
0.990025
0.999694
0.999903
0.998614
0.936601
0.862823
0.9996
0.524849
0.987108
0.958229
0.622809
0.977059
0.967077
0.613119
0.999568
0.983293
0.989214
0.990406
0.789182
0.838584
0.984932
0.682829
0.87425
0.379799
0.180863
0.0606165
0.18934
0.251633
0.304076
0.130803
0.146983
0.342655
0.413841
0.249979
0.231962
0.160486
0.10268
0.317065
0.381423
0.367237
0.641361
0.384886
0.779879
0.4458
0.999329
0.995033
0.984273
0.936892
0.624091
0.155362
0.242163
0.234177
0.480577
0.396732
0.323421
0.105809
0.0757062
1
1
0.999934
0.41106
0.0423966
0.126947
0.119212
0.927512
0.616232
1
1
0.999932
0.356565
0.525192
0.480184
0.382896
0.378426
0.536565
0.469954
0.31969
0.523499
0.376499
0.348859
0.435306
0.132442
0.0414305
0.119395
0.0801868
0.0289207
0.255789
0.192023
0.480682
0.997706
0.984739
0.998466
0.999566
0.269153
0.317853
0.381939
0.294964
0.65492
0.41216
0.767232
0.423056
0.378587
0.537139
0.470417
0.319924
0.524034
0.376295
0.380329
0.0980928
0.113282
0.194353
0.186909
0.283649
0.152762
0.0393967
0.297058
0.499873
0.244832
0.0921176
0.139258
0.166616
0.122046
0.207747
0.222821
0.303679
0.173526
0.12783
0.473832
0.25155
0.116659
0.0512316
0.266649
0.349387
0.262414
0.388269
0.709356
0.257746
0.384824
0.708404
0.389519
0.471517
0.950647
0.984452
0.995553
0.993693
0.808069
0.951495
0.995137
0.988929
0.0913604
0.0682931
0.125169
0.0715466
0.285454
0.336095
0.276402
0.166435
0.857357
0.663224
0.178922
0.44702
0.260438
0.322837
0.444743
0.320767
0.444683
0.309901
0.441444
0.444295
0.320751
0.950668
0.984435
0.995546
0.993684
0.835894
0.958265
0.995616
0.990411
0.221315
0.148654
0.058737
0.118289
0.030092
0.30153
0.36207
0.284139
0.15926
0.857838
0.663629
0.17966
0.447714
0.39675
0.181269
0.0705663
0.328398
0.482052
0.340954
0.490216
0.329017
0.489339
0.492665
0.341111
0.250541
0.0604421
0.0731989
0.371042
0.201977
0.0692982
0.150758
0.0740033
0.149382
0.0795199
0.156455
0.1139
0.119306
0.129008
0.0982973
0.0324461
0.108848
0.297191
0.17768
0.118389
0.147077
0.335352
0.359991
0.375784
0.453344
0.358927
0.535414
0.433682
0.507981
0.0586876
0.156847
0.309747
0.540374
0.44381
0.387577
0.341259
0.563639
0.148224
0.503554
0.497646
0.617107
0.469557
0.600778
0.521048
0.700642
0.398964
0.622792
0.193991
0.795206
0.630253
0.834791
0.584682
0.638769
0.426666
0.795801
0.446624
0.997669
0.999878
0.998433
0.999941
0.985343
0.955603
0.989927
0.298363
0.25952
0.609072
0.478435
0.340982
0.34893
0.156834
0.273984
0.157541
0.118587
0.328295
0.439769
0.355368
0.201366
0.166133
0.494292
0.567784
0.058569
0.171877
0.0421621
0.129665
0.417525
0.553558
0.560501
0.41193
0.308457
0.295249
0.212275
0.428505
0.355049
0.198804
0.820793
0.938002
0.934319
0.83062
0.805654
0.554709
0.995687
0.997055
0.985325
0.934547
0.982318
0.999761
1
0.999962
0.987285
0.998949
0.996054
0.999998
0.983579
0.625735
0.420326
0.145756
0.0515072
0.0370071
0.319588
0.423578
0.350862
0.203302
0.0618514
0.198439
0.297622
0.47903
0.0504903
0.214952
0.270535
0.272754
0.307062
0.283144
0.455028
0.673035
0.823583
0.93946
0.935278
0.836042
0.949914
0.859842
0.997121
0.985533
0.987197
0.998021
0.999912
1
0.999919
0.999899
0.999998
0.998948
0.385027
0.53394
0.532945
0.386253
0.212965
0.0977463
0.0793069
0.26608
0.354436
0.290865
0.361699
0.271685
0.529889
0.460135
0.468712
0.36741
0.383677
0.353953
0.391411
0.404045
0.18624
0.375722
0.370845
0.375404
0.34553
0.416544
0.0715391
0.21635
0.0488054
0.146603
0.404663
0.513567
0.378559
0.439337
0.0983587
0.352337
0.540759
0.394629
0.518274
0.0637163
0.285133
0.321703
0.592781
0.348448
0.59938
0.655478
0.21585
0.794969
0.634192
0.835322
0.581926
0.874415
0.669772
0.432688
0.453549
0.76532
0.158199
0.962772
0.999777
0.998219
0.93462
0.519034
0.143602
0.928709
0.988657
0.545324
0.339559
0.562925
0.574017
0.503709
0.0962003
0.493904
0.616481
0.471067
0.601683
0.375596
0.521277
0.700666
0.328389
0.399172
0.289885
0.37736
0.271129
0.59495
0.457457
0.467432
0.441688
0.416385
0.360005
0.408209
0.418023
0.321472
0.386759
0.398408
0.382694
0.345523
0.417764
0.0511616
0.0264521
0.202097
0.499034
0.512352
0.201901
0.499059
0.517147
0.669709
0.543866
0.543863
0.434149
0.69209
0.543866
0.543865
0.669708
0.543866
0.543865
0.384795
0.0923684
0.238615
0.121104
0.186712
0.2347
0.161786
0.120011
0.283468
0.0329459
0.195194
0.208758
0.0919789
0.151966
0.242949
0.397845
0.558014
0.758485
0.55736
0.541058
0.600788
0.817979
0.726437
0.541253
0.508889
0.639594
0.668064
0.494096
0.341889
1
1
0.414282
0.522502
0.642089
0.527114
0.421293
0.424163
0.560373
0.541972
0.489584
0.36013
0.539101
0.365995
0.320354
0.224975
0.415645
0.156682
0.252935
0.0943439
0.0946982
0.114794
0.328131
0.355783
0.520387
0.643571
0.47713
0.296871
0.245782
0.566804
0.533947
0.601083
0.624588
0.566812
0.601085
0.624944
0.167501
0.181772
0.188697
0.2658
0.45294
0.366795
0.501357
0.331799
0.33928
0.38365
0.298375
0.297891
0.261696
0.0895358
0.405808
0.461194
0.29897
0.31516
0.468319
0.113315
0.23834
0.105341
0.120335
0.543898
0.54878
0.540186
0.503488
0.994062
0.954865
0.999688
0.984506
0.697331
0.914297
0.399673
0.325891
0.825495
0.188704
0.370191
0.452523
0.772686
0.726921
0.842719
0.898916
0.462861
0.928121
0.986107
0.999612
0.984924
0.927887
0.299235
0.205042
0.642853
0.590676
0.973911
0.852676
0.423444
0.306896
0.558143
0.393831
0.99657
0.945674
0.970068
0.042021
0.88612
0.277421
0.420645
0.669582
0.488228
0.390283
0.717387
0.980082
0.961485
0.999599
0.983819
0.897293
0.462429
0.642838
0.58844
0.875691
0.64406
0.607747
0.0406276
0.847399
0.180591
0.614114
0.0649367
0.0513656
0.389687
0.372891
0.535849
0.865451
0.739791
0.720558
0.789854
0.286923
0.695411
0.910523
0.322593
0.7387
0.994284
0.954859
0.999737
0.984505
0.987477
0.994419
0.993044
0.998704
0.997953
0.865951
0.999503
0.999182
0.999005
0.998088
0.986483
0.997392
0.865939
0.999449
0.537587
0.598817
0.383401
0.659761
0.543856
0.543865
0.52677
0.54374
0.543849
0.669707
0.543854
0.543859
0.525222
0.543865
0.543821
0.513061
0.54372
0.543778
0.659614
0.543858
0.543864
0.529015
0.543773
0.543843
0.669707
0.54386
0.543865
0.5398
0.543865
0.543862
0.536469
0.543788
0.543857
0.268071
0.487509
0.565288
0.851243
0.665982
0.871433
0.998785
0.999849
0.957325
0.985003
0.119645
0.421709
0.316733
0.258264
0.99338
0.964701
0.999809
0.997079
0.839985
0.881395
0.999996
1
0.999999
0.897394
0.888205
0.954237
0.578927
0.718477
0.983379
0.981299
0.72752
0.915869
0.925024
0.944278
0.985364
0.997076
0.788153
0.791372
0.913597
0.913732
0.982335
0.926786
0.864851
0.747444
0.689352
0.792988
0.972763
0.843888
0.620463
0.621097
0.955762
0.470862
0.990401
0.99889
0.679275
0.599545
1
1
1
0.999999
1
0.999399
0.999995
1
0.777029
0.742075
0.614243
0.0695072
0.680115
0.362606
0.406233
0.204581
0.448212
0.826279
0.643364
0.64118
0.698364
0.144553
0.336704
0.282581
0.268042
0.982831
0.996966
0.745588
0.763721
0.868008
0.842243
0.946075
0.858108
0.843961
0.65925
0.914234
0.629562
0.960097
0.837788
0.608548
0.805601
0.983698
0.984341
0.999982
0.999444
0.579561
0.576868
1
1
1
0.999999
1
0.999377
0.999995
1
0.999999
0.406288
0.204611
0.444375
0.815866
0.643316
0.641154
0.698347
0.0759633
0.0404471
0.394269
0.0617469
0.231191
0.711456
0.693001
0.810822
0.99998
0.999999
0.999981
0.726955
0.305514
0.749169
0.545531
0.7167
0.983877
0.978686
0.939422
0.780842
0.899666
0.960577
0.316348
0.216145
0.0639843
0.991915
0.937787
0.999147
0.991347
0.84644
0.879797
0.224216
0.351782
0.18578
0.454886
0.116663
0.0326927
0.375477
0.287529
0.372862
0.16662
0.185181
0.46295
0.12975
0.0435144
0.373502
0.500437
0.172974
0.26609
0.579834
0.286928
0.471883
0.928355
0.541224
0.543866
0.419786
0.551846
0.240888
0.362516
0.579837
0.287137
0.517225
0.929232
0.541231
0.543866
0.419883
0.551846
0.02538
0.569905
0.642465
0.569892
0.642496
0.0729697
0.0492228
0.206743
0.187779
0.161114
0.327874
0.294076
0.0850194
0.48485
0.48511
0.485121
0.485055
0.065348
0.179212
0.0280391
0.0716595
0.0524238
0.0269957
0.21168
0.206402
0.119328
0.160779
0.485031
0.484772
0.485096
0.508576
0.350652
0.44918
0.339153
0.190011
0.0621972
0.0881085
0.21328
0.395928
0.303299
0.315096
0.0919668
0.140545
0.305077
0.233682
0.300054
0.161691
0.529894
0.464002
0.485742
0.0448658
0.488413
0.425824
0.377175
0.218972
0.149764
0.0356399
0.0354592
0.301219
0.468642
0.40082
0.336824
0.119159
0.273676
0.0840737
0.221406
0.0988272
0.232482
0.686059
0.900571
0.709554
0.918733
0.500125
0.484455
0.919774
0.771565
0.519464
0.477689
0.84779
0.610594
0.532084
0.355235
0.591182
0.611551
0.639541
0.178715
0.304582
0.751634
0.724916
0.168806
0.639821
0.884274
0.474448
0.810574
0.912034
0.538693
0.753228
0.556908
0.291643
0.690687
0.828109
0.305686
0.985455
0.0795042
0.155268
0.455162
0.368014
0.306237
0.866736
0.658959
0.483472
0.559041
0.648999
0.867518
0.281237
0.467766
0.0757853
0.560328
0.354905
0.141182
0.43473
0.548687
0.801449
0.598387
0.453492
0.596098
0.455759
0.195357
0.979787
0.931094
0.996562
0.985017
0.995163
0.461119
0.140875
0.508826
0.027608
0.150471
0.334775
0.179569
0.88188
0.596884
0.513937
0.556182
0.632289
0.869259
0.200146
0.463503
0.0748065
0.249781
0.301826
0.0633384
0.170435
0.187032
0.276654
0.275302
0.119545
0.843964
0.947102
0.60102
0.454113
0.59644
0.458781
0.654947
0.535802
0.985649
0.996523
0.985147
0.996541
0.999992
0.99999
0.48057
0.715527
0.54029
0.435009
0.729716
0.485961
0.834911
0.929081
0.867169
0.681083
0.893037
0.591982
0.716032
0.826084
0.593422
0.90812
0.921412
0.458506
0.79402
0.529706
0.840514
0.215609
0.180272
0.0355163
0.170608
0.0263023
0.334064
0.679565
0.905259
0.775578
0.9341
0.174013
0.49624
0.480772
0.863137
0.752929
0.396803
0.526609
0.687
0.339866
0.548668
0.520423
0.254493
0.589877
0.578361
0.624229
0.195654
0.365089
0.796363
0.791634
0.295051
0.300701
0.743076
0.307156
0.688294
0.86709
0.639904
0.884293
0.746105
0.810501
0.912062
0.933901
0.908046
0.485584
0.753217
0.557011
0.479725
0.715164
0.540176
0.433502
0.729972
0.496347
0.866132
0.928991
0.867028
0.758677
0.892918
0.596098
0.67287
0.745368
0.826314
0.595819
0.920501
0.928342
0.491373
0.810586
0.543948
0.843543
0.0230667
0.0784092
0.203178
0.209553
0.062461
0.0414639
0.103233
0.952481
0.986156
0.828097
0.971145
0.339738
0.239895
0.217315
0.530677
0.867693
0.719116
0.993236
0.995349
0.625349
0.750508
0.833601
0.670514
0.853087
0.635659
0.890916
0.673863
0.646395
0.863375
0.843557
0.376836
0.603764
0.957584
0.667365
0.411412
0.845186
0.742751
0.739134
0.682998
0.861741
0.872959
0.923649
0.95689
0.886173
0.9579
0.195616
0.072218
0.547146
0.783738
0.343653
0.74693
0.547359
0.796429
0.836551
0.947393
0.854752
0.94066
0.455708
0.465498
0.59782
0.606418
0.196011
0.194882
0.796763
0.548679
0.0449836
0.351993
0.530032
0.125887
0.954138
0.08811
0.86866
0.989065
0.705043
0.984367
0.999938
1
1
0.998645
0.999981
0.999999
1
0.976744
0.987566
0.758402
0.689356
0.818793
0.889352
0.748223
0.853155
0.68597
0.877472
0.0873221
0.258942
0.494889
0.670322
0.0636461
0.678467
0.31896
0.939249
0.830079
0.9064
0.450416
0.438457
0.591887
0.579016
0.774181
0.881676
0.740724
0.905993
0.311948
0.4082
0.40745
0.92135
0.6409
0.847269
0.602048
0.37214
0.54332
0.0297376
0.0297376
0.86907
0.998752
1
0.999962
0.962313
0.999659
0.33754
0.0697408
0.839954
0.944449
0.906705
0.979073
0.753469
0.943525
0.0491389
0.430207
0.0664615
0.126889
0.377091
0.232887
0.582837
0.236896
0.747873
0.615497
0.665414
0.98603
0.992471
0.824303
0.93154
0.694621
0.661645
0.862124
0.811145
0.63686
0.728167
0.558726
0.825297
0.539381
0.733726
0.948446
0.747541
0.540894
0.951845
0.848246
0.556948
0.694793
0.0953311
0.438738
0.430768
0.248248
0.360711
0.760794
0.89865
0.0306637
0.794493
0.921923
0.576582
0.467855
0.188601
0.580461
0.485325
0.794238
0.91636
0.794294
0.921879
0.188621
0.48487
0.580657
0.580933
0.485352
0.792839
0.902551
0.556503
0.694584
0.120241
0.0866856
0.515467
0.634427
0.232277
0.391239
0.760731
0.898678
0.794501
0.921934
0.705405
0.697843
0.369794
0.522373
0.710413
0.725956
0.794244
0.916379
0.794263
0.921915
0.350718
0.51876
0.596877
0.68268
0.702802
0.72304
0.792925
0.908818
0.347263
0.400718
0.353793
0.1465
0.143938
0.0320872
0.310126
0.38322
0.233477
0.255961
0.305375
0.318887
0.136033
0.114957
0.144755
0.0853814
0.834781
0.974906
0.194807
0.420358
0.160587
0.383128
0.880643
0.985052
0.252239
0.402192
0.462286
0.528538
0.683965
0.724077
0.993491
0.995514
0.267658
0.997529
0.989976
0.943852
0.842451
0.993366
0.97299
0.837002
0.954122
0.999973
0.999871
0.995957
0.995641
0.999964
0.999093
0.999902
0.999072
0.991426
0.998927
0.911968
0.984362
0.885845
0.960052
0.999288
0.99713
0.658427
0.519888
0.72999
0.929875
0.982786
0.95225
0.86209
0.90709
0.908027
0.973107
0.541951
0.794248
0.844338
0.922026
0.99089
0.874143
0.983985
0.800316
0.741566
0.99706
0.995989
0.958548
0.995986
0.96516
0.994324
0.997728
0.993929
0.904372
0.907441
0.724805
0.885912
0.696896
0.908291
0.956281
0.978315
0.780026
0.948999
0.972092
0.840105
0.912715
0.0597371
0.432234
0.427216
0.485276
0.618699
0.703332
0.867969
0.896054
0.842625
0.93208
0.272265
0.665553
0.6757
0.780119
0.259481
0.604027
0.975105
0.688612
0.794466
0.368733
0.645188
0.820277
0.968922
0.0230912
0.134589
0.0742414
0.319935
0.094627
0.10618
0.149491
0.271407
0.0450381
0.0661917
0.340963
0.555203
0.327232
0.594348
0.804913
0.135581
0.319185
0.399774
0.256095
0.727949
0.8702
0.657761
0.396349
0.255047
0.734703
0.874122
0.660735
0.177957
0.622752
0.528529
0.635615
0.89864
0.71735
0.0729756
0.244265
0.36626
0.179858
0.100728
0.0426352
0.284128
0.124531
0.282986
0.636239
0.265083
0.68869
0.552877
0.758195
0.234843
0.562743
0.341262
0.303656
0.145559
0.120186
0.123267
0.640184
0.900899
0.796744
0.939841
0.920918
0.971635
0.944993
0.963761
0.742331
0.90313
0.878181
0.9467
0.940675
0.0756377
0.691319
0.801943
0.547583
0.374803
0.192276
0.0685037
0.207356
0.0744161
0.248145
0.173575
0.83116
0.97331
0.302923
0.553268
0.213784
0.589068
0.270516
0.422197
0.534138
0.603333
0.906817
0.988598
0.706164
0.775883
0.993199
0.996308
0.735266
0.929606
0.694908
0.884886
0.929168
0.969054
0.93599
0.95906
0.846119
0.958047
0.997748
0.990044
0.945736
0.842912
0.220519
0.080898
0.994532
0.977493
0.837661
0.954333
0.999943
0.999872
0.997375
0.997581
0.999891
0.999359
0.999915
0.999551
0.99145
0.998928
0.913848
0.911956
0.984358
0.885873
0.581767
0.960138
0.999289
0.99713
0.658061
0.520129
0.73413
0.931431
0.982758
0.952163
0.861962
0.961353
0.917334
0.973056
0.542247
0.794905
0.844311
0.927138
0.992238
0.909404
0.99006
0.813928
0.796708
0.99792
0.99765
0.956873
0.995899
0.96846
0.994501
0.997709
0.993922
0.898813
0.910471
0.797087
0.93974
0.921893
0.971967
0.963675
0.742638
0.903151
0.878178
0.945612
0.938873
0.920468
0.999935
0.999717
0.973018
0.997788
0.980775
0.992642
0.779792
0.790008
0.904475
0.886586
0.939563
0.895953
0.944801
0.881714
0.880291
0.88401
0.727663
0.239196
0.74863
0.842155
1
1
1
1
1
0.99999
0.999927
0.41547
0.773272
0.76951
0.880811
0.89782
0.853138
0.743236
0.834543
0.710685
0.874019
0.88216
0.726045
0.235259
1
1
1
1
0.99999
0.999935
0.428533
0.0263332
0.0552539
0.999748
0.997933
0.924288
0.986239
0.931748
0.167408
0.205223
0.36529
0.431468
0.467667
0.101462
0.536935
0.345416
0.162827
0.201675
0.356649
0.427505
0.461138
0.100409
0.533643
0.342287
1
0.999999
0.999965
0.999999
0.999965
1
0.999993
0.264021
0.112622
0.473392
0.473149
0.696391
0.995921
0.862312
0.69639
0.771715
0.995921
0.696804
0.844822
0.837236
0.682314
0.649247
0.523921
0.542275
0.977147
0.884084
0.830286
0.683271
0.630464
0.514017
0.540255
0.977236
0.885955
0.723466
0.911867
0.922194
0.0720272
0.20944
0.0815813
0.281039
0.713532
0.985618
0.958331
0.209954
0.96982
0.990249
0.713531
0.985616
0.95833
0.209961
0.969948
0.990249
0.301744
0.273978
1
1
1
1
1
0.999913
1
1
0.301749
0.273982
1
0.999995
1
1
0.999997
0.993883
0.999947
1
0.999947
0.999963
0.962701
0.915549
0.864536
0.896182
0.98654
0.904141
0.97002
0.467115
0.999947
0.999963
0.960551
0.915539
0.864515
0.896164
0.999989
0.999993
0.969603
0.855763
0.512703
0.811352
0.941188
0.465391
0.0588333
0.141652
0.0482524
0.024669
0.6555
0.65203
0.892262
0.979344
0.595644
0.863359
0.154063
0.0890125
0.195347
0.167694
0.0758069
0.655491
0.652027
0.892262
0.979341
0.59565
0.72246
0.965947
0.516284
0.72247
0.965944
0.516283
0.03842
0.0957745
0.36334
0.402634
0.371244
0.143311
0.0326144
0.146301
0.0826666
0.391164
0.396364
0.295446
0.299536
0.255433
0.323421
0.147445
0.289414
0.0871378
0.154285
0.220039
0.998096
0.998524
0.966965
0.989786
0.999389
0.998274
0.976418
0.997008
0.206246
0.205993
0.227615
0.216523
0.97947
0.927842
0.996531
0.985384
0.927917
0.979372
0.995088
0.131825
0.675939
0.245736
0.269635
0.229334
0.689245
0.448032
0.369882
0.334391
0.507004
0.498535
0.787634
0.201047
0.18718
0.0678417
0.158836
0.995017
0.965977
0.935776
0.959749
0.131838
0.0609635
0.675925
0.245731
0.228829
0.6892
0.0747253
0.568924
0.777927
0.52029
0.093142
0.0847152
0.998337
0.998541
0.966969
0.989785
0.999532
0.998278
0.976427
0.997006
1
1
0.999868
1
0.995746
0.973108
0.999127
1
0.996969
0.990175
0.962045
0.9933
1
1
0.999868
1
0.995746
0.973086
0.999126
1
0.996953
0.997577
0.978656
0.996912
0.985439
0.965759
0.875985
0.99756
0.999109
0.999199
0.95049
0.935568
0.989161
0.993802
0.981743
0.965758
0.875971
0.99925
0.997328
0.0918311
0.841285
0.977317
0.994966
0.920793
0.978967
0.901478
0.953766
0.986773
0.989479
0.950463
0.885949
0.945175
0.616339
0.673661
0.673536
0.588823
0.543724
0.563633
0.543845
0.999318
0.995638
0.754532
0.903803
0.927994
0.750408
0.812344
0.162709
0.303045
0.559025
0.869869
0.20831
0.676979
0.919119
0.858321
0.0445465
0.570877
0.486167
0.214702
0.169718
0.0699427
0.214422
0.329265
0.245922
0.640702
0.245667
0.647041
0.305736
0.845817
0.942329
0.854673
0.943125
0.982785
0.979974
0.974685
0.94833
0.884588
0.942031
0.982665
0.612028
0.581544
0.557208
0.51451
0.54345
0.554491
0.9992
0.995592
0.115425
0.0445505
0.245911
0.640658
0.647
0.551955
0.481838
0.204468
0.167454
0.0696024
0.214367
0.328565
0.971103
0.959686
0.977321
0.40134
0.853208
0.0250501
0.0891928
0.124438
0.235
0.452885
0.594429
0.221827
0.689326
0.361391
0.0898459
0.242772
0.167169
0.260446
0.462297
0.594771
0.222081
0.705594
0.382749
0.596446
0.861846
0.20555
1
1
1
0.999646
0.999989
0.999979
0.999773
0.99949
0.999081
0.999911
0.999995
0.999998
0.999851
1
1
0.999961
1
1
1
0.999998
0.999937
0.999937
0.70296
0.702538
0.952991
0.850255
0.708418
0.882203
0.232451
1
0.95299
0.850256
0.70842
0.882202
1
0.0564122
0.0564117
0.999987
0.999996
0.99997
0.999979
0.999996
0.999987
0.99997
0.999979
0.999998
0.999989
0.999973
0.999996
0.999906
0.999938
0.982607
0.958914
0.987639
0.994565
0.850416
0.966717
0.594229
0.306752
0.982608
0.987649
0.994565
0.850421
0.96672
0.594241
0.306755
0.134225
1
1
1
1
1
1
1
1
1
0.134225
1
1
1
1
1
1
1
1
0.999962
0.999968
0.999962
0.999968
0.999992
0.999898
0.999901
0.993146
0.99855
0.999802
0.993262
1
1
1
0.999435
0.999903
0.999999
0.999996
0.999991
0.999961
0.999725
0.997926
0.999883
1
1
1
0.999997
0.999957
0.999435
0.998629
0.999903
0.999999
0.999991
0.999996
0.999961
0.999725
0.997923
0.999883
1
1
1
1
1
0.999999
0.999999
1
1
1
0.47599
0.575207
0.978905
0.98722
0.427811
0.534322
0.97537
0.986833
0.946752
0.818529
0.543315
0.543339
0.0964909
0.937443