/*--------------------------------*- C++ -*----------------------------------*\
| =========                 |                                                 |
| \\      /  F ield         | OpenFOAM: The Open Source CFD Toolbox           |
|  \\    /   O peration     | Version:  2206                                  |
|   \\  /    A nd           | Website:  www.openfoam.com                      |
|    \\/     M anipulation  |                                                 |
\*---------------------------------------------------------------------------*/
FoamFile
{
    version     2.0;
    format      ascii;
    arch        "LSB;label=32;scalar=64";
    class       volScalarField;
    location    "200";
    object      k;
}
// * * * * * * * * * * * * * * * * * * * * * * * * * * * * * * * * * * * * * //

dimensions      [0 2 -2 0 0 0 0];

internalField   nonuniform List<scalar> 
187974
(
0.321727
0.311772
0.309519
0.30831
0.308337
0.309669
0.311331
0.323443
0.340707
0.330417
0.328654
0.327392
0.327425
0.328787
0.329878
0.342698
0.352046
0.342288
0.34109
0.339897
0.339933
0.341166
0.341651
0.354167
0.364571
0.355137
0.355926
0.355199
0.35523
0.355715
0.354188
0.366899
0.381112
0.370337
0.371213
0.37218
0.372215
0.371171
0.369351
0.38364
0.399905
0.388206
0.388534
0.391121
0.391168
0.388727
0.387434
0.402565
0.420727
0.408526
0.409357
0.411634
0.411678
0.409515
0.407569
0.423238
0.444334
0.431617
0.432845
0.43408
0.434127
0.433003
0.430496
0.447108
0.470299
0.45895
0.459708
0.459733
0.459773
0.459819
0.457494
0.473795
0.499292
0.489024
0.489684
0.490012
0.490011
0.489852
0.48722
0.502412
0.533445
0.523639
0.525215
0.525629
0.525622
0.525277
0.522635
0.539153
0.569387
0.564722
0.565989
0.566601
0.566577
0.565936
0.562677
0.574553
0.614749
0.612008
0.613836
0.613905
0.613881
0.613912
0.609915
0.621039
0.67469
0.670763
0.670548
0.670743
0.670775
0.670702
0.668527
0.681457
0.745219
0.740998
0.741401
0.74154
0.741584
0.741535
0.739142
0.751214
0.831524
0.827107
0.827329
0.827395
0.827406
0.827383
0.827578
0.831207
0.934219
0.934882
0.934917
0.934887
0.934884
0.93491
0.935017
0.936226
1.07349
1.07276
1.07288
1.07292
1.07292
1.07287
1.07276
1.0732
1.25494
1.25422
1.25428
1.2543
1.2543
1.25428
1.25421
1.25502
1.49598
1.4954
1.49543
1.49544
1.49544
1.49542
1.49539
1.496
0.315071
0.279897
0.282328
0.283569
0.283571
0.282173
0.279788
0.315191
0.337659
0.300842
0.303012
0.304205
0.304199
0.302848
0.300731
0.338257
0.38407
0.297553
0.301461
0.304839
0.305187
0.303593
0.299428
0.292179
0.410611
0.31917
0.320245
0.323245
0.323577
0.321982
0.319682
0.320137
0.424681
0.342791
0.340548
0.34157
0.34191
0.34103
0.344467
0.341598
0.438542
0.364536
0.36663
0.361747
0.361437
0.364133
0.366199
0.362622
0.454743
0.388243
0.389941
0.383595
0.382825
0.386798
0.389681
0.385968
0.474987
0.414897
0.415511
0.410161
0.409697
0.412487
0.415935
0.412178
0.497111
0.443334
0.442894
0.440549
0.440547
0.440412
0.44366
0.439594
0.523291
0.473872
0.475198
0.475102
0.475011
0.47494
0.474703
0.470892
0.550465
0.511142
0.510859
0.510951
0.510971
0.510859
0.510901
0.509879
0.5787
0.55199
0.551303
0.551395
0.551446
0.551291
0.552089
0.55009
0.613275
0.599451
0.598633
0.598683
0.598696
0.598597
0.599396
0.59768
0.654124
0.655014
0.655196
0.655379
0.655423
0.655393
0.655054
0.652954
0.721763
0.721944
0.722407
0.723029
0.723304
0.723219
0.722727
0.719647
0.802454
0.803188
0.803993
0.804242
0.804251
0.804174
0.803917
0.800897
0.902801
0.903837
0.904497
0.904589
0.904564
0.90451
0.904219
0.901416
1.03072
1.03178
1.03223
1.03238
1.03237
1.03228
1.03199
1.03119
1.19886
1.19934
1.19899
1.19902
1.19904
1.19894
1.19975
1.19847
1.49827
1.49757
1.4972
1.49721
1.49721
1.49721
1.49774
1.49808
0.334263
0.42922
0.450105
0.450183
0.45012
0.449994
0.429168
0.334527
0.357539
0.425279
0.432613
0.43279
0.432339
0.432748
0.43464
0.358111
0.427895
0.439676
0.450417
0.45116
0.450763
0.45094
0.449211
0.302298
0.432721
0.431944
0.447656
0.447546
0.446803
0.447475
0.447192
0.324159
0.44574
0.433063
0.447781
0.447549
0.446917
0.447665
0.447406
0.34051
0.460994
0.434809
0.447585
0.446986
0.446506
0.447468
0.447396
0.357336
0.478383
0.437118
0.44654
0.445316
0.444774
0.446072
0.446448
0.37687
0.492193
0.439211
0.44322
0.44145
0.440708
0.442118
0.443338
0.409464
0.512859
0.446968
0.446412
0.444516
0.443946
0.444881
0.446853
0.444568
0.532123
0.47313
0.469305
0.46732
0.466963
0.467507
0.469765
0.476296
0.545328
0.507149
0.504991
0.502804
0.502441
0.502943
0.505314
0.511805
0.575862
0.546873
0.545668
0.545218
0.544712
0.545136
0.545632
0.552398
0.610165
0.593366
0.59317
0.592264
0.592065
0.592287
0.59328
0.599603
0.654492
0.647831
0.647483
0.647364
0.647235
0.647309
0.647597
0.655192
0.721734
0.713197
0.713582
0.714539
0.71501
0.714876
0.713679
0.721776
0.802486
0.792309
0.79371
0.794509
0.794456
0.794122
0.79343
0.802544
0.902797
0.890374
0.891776
0.892732
0.892617
0.892221
0.891143
0.902608
1.03166
1.01492
1.01572
1.01436
1.01345
1.0148
1.01483
1.03111
1.19891
1.17522
1.17228
1.17073
1.17073
1.17072
1.17436
1.19749
1.49718
1.42211
1.42207
1.42207
1.42207
1.42207
1.42205
1.49716
0.335054
0.447864
0.488898
0.489521
0.489307
0.488891
0.448281
0.334495
0.356984
0.432146
0.527822
0.530237
0.529547
0.529712
0.52679
0.357611
0.417608
0.449457
0.557645
0.563136
0.562469
0.562447
0.549667
0.305075
0.423413
0.446137
0.579421
0.595586
0.594431
0.594768
0.578982
0.327068
0.436228
0.44581
0.605517
0.635833
0.634542
0.635855
0.603881
0.344556
0.450759
0.445767
0.632902
0.682244
0.680383
0.683146
0.630665
0.36361
0.466697
0.444984
0.661834
0.7341
0.733275
0.737025
0.659794
0.390625
0.483806
0.442285
0.693565
0.795472
0.794707
0.798517
0.691577
0.415155
0.502366
0.446748
0.721185
0.861354
0.860119
0.862554
0.723759
0.443191
0.523458
0.470359
0.720529
0.915069
0.913744
0.916444
0.722913
0.474949
0.547824
0.505576
0.718399
0.975298
0.973287
0.976792
0.717206
0.510997
0.577697
0.546152
0.671151
1.01027
1.00532
1.01051
0.667407
0.552446
0.612447
0.593628
0.608132
0.980643
0.978047
0.980665
0.606492
0.599787
0.654632
0.647958
0.643572
0.760019
0.756416
0.760191
0.644206
0.655239
0.72174
0.712992
0.708621
0.708368
0.709813
0.708447
0.70887
0.721697
0.802312
0.791631
0.785828
0.789236
0.789619
0.789109
0.787215
0.802179
0.90231
0.88834
0.889693
0.889319
0.88797
0.890842
0.890518
0.901748
1.02908
1.01069
1.01209
1.01057
1.01056
1.01057
1.01237
1.02888
1.19604
1.17106
1.1706
1.17059
1.17059
1.17059
1.1706
1.19543
1.49677
1.42208
1.42207
1.42207
1.42207
1.42207
1.42207
1.49677
0.333608
0.44914
0.488454
0.4894
0.489341
0.488483
0.444882
0.337328
0.355503
0.431433
0.525941
0.527629
0.528075
0.52796
0.526431
0.355021
0.419509
0.44867
0.555517
0.561752
0.561903
0.561163
0.54898
0.313218
0.424462
0.444198
0.57546
0.593386
0.594203
0.593553
0.575095
0.334508
0.436455
0.444922
0.599885
0.633223
0.634106
0.633452
0.599261
0.351706
0.449994
0.445959
0.626486
0.678423
0.679406
0.678748
0.62568
0.3706
0.465426
0.44604
0.655506
0.730241
0.731396
0.73065
0.654557
0.391827
0.482947
0.443449
0.687053
0.790369
0.791864
0.790742
0.686023
0.415843
0.502497
0.448564
0.716521
0.854979
0.858692
0.854935
0.716352
0.443151
0.524284
0.472881
0.716272
0.911252
1.02079
0.910036
0.716008
0.474348
0.548706
0.507781
0.710129
0.981534
2.03802
0.976121
0.709779
0.510271
0.576911
0.547673
0.658114
1.03349
3.73219
1.02727
0.657598
0.551929
0.610047
0.593898
0.602047
1.02683
2.89458
1.01303
0.601846
0.599498
0.654512
0.648109
0.644751
0.777878
0.767252
0.644648
0.655216
0.721613
0.712727
0.708177
0.707437
0.732773
0.707095
0.708191
0.721438
0.80219
0.791127
0.785503
0.785295
0.785184
0.785323
0.785534
0.801909
0.902049
0.888036
0.888024
0.887952
0.887923
0.887969
0.888044
0.901683
1.02898
1.01064
1.01058
1.01055
1.01054
1.01056
1.01058
1.0285
1.19591
1.17066
1.1706
1.17059
1.17059
1.17059
1.1706
1.19531
1.49677
1.42208
1.42207
1.42207
1.42207
1.42207
1.42207
1.49677
0.334856
0.431943
0.454158
0.454017
0.452485
0.451125
0.427195
0.33672
0.358571
0.435931
0.528332
0.530087
0.529753
0.530374
0.527335
0.353984
0.427701
0.45312
0.552783
0.55507
0.554383
0.555312
0.547343
0.310128
0.424078
0.444827
0.579005
0.589885
0.589225
0.590036
0.580715
0.332714
0.439721
0.444841
0.60321
0.6246
0.623444
0.624268
0.605715
0.353375
0.45518
0.445083
0.631135
0.66338
0.662388
0.662999
0.632648
0.372452
0.472369
0.444665
0.661008
0.706757
0.707772
0.707495
0.662454
0.393491
0.491897
0.442326
0.693006
0.758731
0.759274
0.759634
0.693522
0.417393
0.519215
0.446874
0.721216
0.865505
0.865366
0.86455
0.724564
0.444048
0.530324
0.470522
0.721411
0.913186
0.914316
0.91281
0.724077
0.475083
0.560406
0.505711
0.718264
0.974359
0.974696
0.979222
0.720928
0.510645
0.577794
0.546308
0.672903
1.0068
1.00483
1.01095
0.677218
0.552708
0.609847
0.593549
0.607435
0.979518
0.972035
0.979315
0.612337
0.599627
0.654605
0.647872
0.643968
0.761569
0.752228
0.760634
0.64391
0.655163
0.721829
0.71286
0.708864
0.708839
0.708694
0.70868
0.709228
0.721542
0.802593
0.791843
0.787516
0.790156
0.789834
0.789446
0.787254
0.802451
0.903278
0.889198
0.890622
0.890677
0.888622
0.891645
0.890582
0.902998
1.02953
1.01278
1.01094
1.01058
1.01057
1.01058
1.01202
1.02936
1.19629
1.17216
1.17109
1.1706
1.1706
1.1706
1.17302
1.19611
1.49772
1.42275
1.42207
1.42207
1.42207
1.42207
1.42204
1.49774
0.328576
0.285444
0.288631
0.288842
0.287719
0.281867
0.279227
0.307211
0.35047
0.306729
0.308514
0.308796
0.30839
0.302127
0.299935
0.334392
0.423068
0.328682
0.327853
0.325119
0.323146
0.322854
0.322353
0.301747
0.418605
0.339041
0.339514
0.338388
0.337627
0.337292
0.336578
0.325079
0.438789
0.355575
0.353847
0.354402
0.354341
0.35417
0.353623
0.342514
0.455753
0.373642
0.373039
0.3732
0.37312
0.373083
0.372707
0.360923
0.464172
0.394452
0.394314
0.394297
0.394209
0.394305
0.394067
0.383587
0.480338
0.418472
0.41819
0.418055
0.417996
0.41819
0.418104
0.412318
0.494624
0.445586
0.4452
0.445047
0.444952
0.445219
0.44522
0.440986
0.518543
0.476268
0.475938
0.475806
0.475707
0.475934
0.475927
0.475129
0.542981
0.511477
0.511108
0.510938
0.51085
0.510985
0.511108
0.510607
0.572643
0.552162
0.551778
0.551565
0.55149
0.551685
0.55195
0.552612
0.60393
0.599563
0.599215
0.599041
0.598923
0.599204
0.599258
0.599505
0.655213
0.655118
0.654964
0.655263
0.655167
0.655271
0.654846
0.655082
0.721747
0.722394
0.723025
0.72375
0.723659
0.72362
0.722423
0.721822
0.803141
0.804194
0.804316
0.80498
0.804958
0.804799
0.804003
0.803096
0.903849
0.904721
0.904968
0.905701
0.905753
0.905612
0.904613
0.903617
1.0312
1.03247
1.03331
1.03331
1.03347
1.03351
1.03264
1.03081
1.19823
1.20071
1.20095
1.20029
1.20038
1.20031
1.20105
1.19952
1.49897
1.49886
1.49856
1.49858
1.49858
1.49855
1.49893
1.49862
0.312842
0.305771
0.303938
0.297528
0.29746
0.309084
0.309837
0.324281
0.330425
0.325102
0.324226
0.31874
0.318538
0.327675
0.32875
0.34229
0.345047
0.341096
0.336895
0.333447
0.333251
0.340029
0.342527
0.352578
0.362966
0.352212
0.354775
0.351468
0.351227
0.356896
0.355763
0.367378
0.385155
0.373613
0.372232
0.370634
0.370269
0.372334
0.370691
0.384713
0.404706
0.388334
0.390823
0.390924
0.390226
0.389891
0.388218
0.403696
0.423026
0.40906
0.411449
0.411193
0.410005
0.409909
0.408109
0.424144
0.44658
0.431202
0.434281
0.434124
0.432867
0.432363
0.430681
0.44537
0.472101
0.457047
0.459958
0.45978
0.459301
0.458964
0.456997
0.471065
0.502304
0.486298
0.489538
0.489969
0.490035
0.490066
0.487862
0.502573
0.535241
0.521797
0.525029
0.525521
0.525504
0.524842
0.522672
0.533687
0.574513
0.56325
0.565395
0.565845
0.565852
0.565421
0.563358
0.573375
0.618875
0.609927
0.612158
0.612122
0.612124
0.612139
0.610238
0.617357
0.679242
0.668556
0.670949
0.671017
0.671024
0.670934
0.668881
0.677455
0.74871
0.739109
0.741487
0.741571
0.74157
0.741464
0.739509
0.746546
0.829246
0.827345
0.827355
0.827408
0.827408
0.82733
0.827818
0.826532
0.938314
0.934159
0.934829
0.934871
0.934872
0.934809
0.934792
0.935319
1.07573
1.0722
1.07284
1.07289
1.0729
1.07276
1.07264
1.07313
1.25539
1.25435
1.25429
1.2543
1.2543
1.25412
1.25383
1.2547
1.49582
1.49536
1.49541
1.49543
1.49543
1.4954
1.49534
1.49594
0.447187
0.432919
0.447216
0.442904
0.580707
0.442777
0.599323
0.447882
0.448008
0.447844
0.579256
0.588763
0.598316
0.614012
0.446796
0.447827
0.446822
0.588845
0.588868
0.613859
0.613785
0.447183
0.447166
0.447271
0.58887
0.588412
0.613798
0.613356
0.447712
0.447877
0.447811
0.588501
0.578787
0.613604
0.597511
0.432391
0.447588
0.433167
0.579252
0.440327
0.597659
0.440581
0.447375
0.434511
0.447183
0.443058
0.60595
0.443313
0.626187
0.447942
0.44789
0.447426
0.604921
0.623363
0.625309
0.652578
0.446939
0.447417
0.446462
0.622883
0.62271
0.65228
0.650862
0.447437
0.446898
0.44724
0.622722
0.622308
0.650857
0.650446
0.447984
0.447796
0.447747
0.622603
0.604152
0.650828
0.624365
0.433667
0.447656
0.434771
0.604227
0.440871
0.624267
0.441843
0.447302
0.436736
0.446743
0.446096
0.633389
0.445584
0.654426
0.447398
0.447229
0.446309
0.632607
0.662773
0.654128
0.694007
0.446421
0.446187
0.445121
0.66264
0.661123
0.693727
0.693007
0.447314
0.445696
0.446345
0.661111
0.660593
0.692995
0.69287
0.447813
0.446903
0.446964
0.66097
0.631619
0.693241
0.653725
0.435397
0.447115
0.436941
0.631463
0.442137
0.653418
0.44203
0.446537
0.438831
0.444204
0.445452
0.661706
0.443497
0.685506
0.445904
0.444332
0.442982
0.661878
0.704767
0.685101
0.740959
0.444596
0.442656
0.441388
0.704872
0.704489
0.741523
0.741184
0.445885
0.441941
0.442627
0.704481
0.704531
0.741153
0.741082
0.446632
0.443381
0.443937
0.704998
0.661597
0.741374
0.684591
0.437643
0.444373
0.439156
0.661243
0.44348
0.684266
0.441723
0.443569
0.443964
0.444389
0.443048
0.694062
0.445041
0.718066
0.442174
0.444107
0.442522
0.693118
0.754093
0.717518
0.795542
0.440574
0.442226
0.441314
0.754775
0.754545
0.796628
0.796929
0.441721
0.44158
0.442027
0.754505
0.754311
0.796861
0.796007
0.443215
0.442666
0.443895
0.75446
0.692722
0.796016
0.718181
0.439898
0.444482
0.444573
0.692993
0.441546
0.719421
0.444463
0.446914
0.464229
0.462317
0.448048
0.723332
0.463467
0.723898
0.44492
0.461917
0.46008
0.721255
0.864509
0.721089
0.904844
0.443913
0.459936
0.459559
0.865277
0.863211
0.906464
0.904262
0.444477
0.459545
0.459802
0.863212
0.865312
0.904239
0.906316
0.446418
0.460149
0.461895
0.864458
0.722885
0.904723
0.723843
0.447793
0.462399
0.46481
0.725008
0.44763
0.726763
0.463286
0.469687
0.497923
0.495926
0.470793
0.724671
0.496273
0.722685
0.46745
0.495296
0.493481
0.721769
0.91215
0.720725
0.964094
0.466998
0.493311
0.493003
0.91384
0.911681
0.966073
0.963698
0.467187
0.492942
0.493166
0.911651
0.913687
0.963617
0.965777
0.469295
0.49347
0.49528
0.911992
0.724449
0.963434
0.722636
0.472759
0.495717
0.497914
0.727367
0.470688
0.724596
0.496296
0.505249
0.536373
0.535048
0.505507
0.721626
0.535296
0.68453
0.502957
0.535089
0.53413
0.719564
0.972009
0.681774
1.01031
0.50248
0.533807
0.533452
0.973956
0.971455
1.00904
1.00464
0.502635
0.53341
0.533906
0.971378
0.973655
1.00472
1.00839
0.50505
0.5343
0.535106
0.971216
0.72146
1.00982
0.683675
0.507118
0.53505
0.536333
0.723497
0.505548
0.686716
0.535368
0.545616
0.581028
0.580527
0.546504
0.676855
0.581246
0.616606
0.545227
0.580383
0.579858
0.675393
1.0094
0.614609
0.985414
0.544747
0.579764
0.579464
1.00953
1.00446
0.986594
0.982193
0.545075
0.579464
0.579636
1.0037
1.00891
0.982454
0.985403
0.545669
0.579769
0.580396
1.00887
0.677278
0.98537
0.6155
0.546827
0.580579
0.580973
0.679022
0.546579
0.618084
0.581312
0.593211
0.633255
0.63303
0.593521
0.612086
0.633355
0.636366
0.592382
0.633007
0.632762
0.610082
0.979004
0.636128
0.775666
0.592017
0.632703
0.632501
0.980229
0.976069
0.776407
0.773443
0.592134
0.632525
0.632545
0.976342
0.978999
0.77398
0.775957
0.593185
0.632668
0.633039
0.979007
0.610695
0.776219
0.635858
0.593306
0.633113
0.633187
0.613328
0.593588
0.636276
0.633432
0.647516
0.695777
0.69588
0.647813
0.643862
0.695462
0.699944
0.647393
0.695979
0.696236
0.643468
0.757736
0.700018
0.703625
0.64721
0.696463
0.696889
0.758454
0.75505
0.703634
0.705318
0.647231
0.696898
0.696804
0.75554
0.758072
0.705318
0.703788
0.647517
0.696783
0.696171
0.758252
0.643308
0.703691
0.700109
0.647745
0.696026
0.695717
0.64378
0.647908
0.700063
0.695707
0.713437
0.771224
0.772169
0.712793
0.709004
0.770502
0.77637
0.71421
0.772439
0.772843
0.708954
0.708195
0.776476
0.778567
0.715039
0.773033
0.772935
0.708235
0.709716
0.778636
0.779255
0.714956
0.77306
0.77278
0.709716
0.708386
0.779223
0.778845
0.713982
0.772695
0.772485
0.708333
0.709136
0.778626
0.77646
0.713101
0.772188
0.771063
0.708828
0.713033
0.776324
0.770548
0.793434
0.863604
0.864464
0.791833
0.786905
0.8617
0.870252
0.794303
0.865097
0.865947
0.786766
0.789235
0.871109
0.872559
0.794367
0.866114
0.865865
0.789286
0.789873
0.87256
0.868684
0.794234
0.86588
0.865884
0.789867
0.789505
0.868684
0.872726
0.793728
0.86569
0.864954
0.789294
0.7873
0.872477
0.870213
0.792126
0.864471
0.862873
0.787037
0.791837
0.870234
0.861842
0.891288
0.980925
0.981324
0.888574
0.891267
0.978784
0.980916
0.892597
0.981777
0.982476
0.89154
0.892591
0.981252
0.977392
0.892582
0.981987
0.981234
0.891579
0.889035
0.976977
0.976966
0.892354
0.981202
0.981648
0.889033
0.891622
0.976966
0.976985
0.891488
0.981738
0.981221
0.891891
0.89077
0.977371
0.98034
0.889544
0.981033
0.980003
0.890485
0.888897
0.97973
0.978814
1.01526
1.1312
1.13057
1.01198
1.01471
1.12895
1.1265
1.01578
1.12965
1.12626
1.0142
1.01058
1.12613
1.12612
1.01347
1.12625
1.12625
1.01057
1.01057
1.12612
1.12612
1.014
1.12625
1.12625
1.01057
1.01057
1.12612
1.12612
1.01472
1.12626
1.12978
1.01058
1.01379
1.12612
1.12613
1.01398
1.13093
1.13068
1.01393
1.01179
1.12647
1.12846
1.174
1.30149
1.30088
1.17227
1.17058
1.30058
1.30057
1.17072
1.30058
1.30058
1.1706
1.1706
1.30057
1.30057
1.17073
1.30058
1.30058
1.1706
1.17059
1.30057
1.30057
1.17073
1.30058
1.30058
1.17059
1.1706
1.30057
1.30057
1.17238
1.30058
1.30058
1.1706
1.1706
1.30057
1.30057
1.17476
1.30116
1.30153
1.17054
1.17197
1.30058
1.30061
0.579881
0.445995
0.598506
0.444199
0.575587
0.444644
0.5931
0.595791
0.599181
0.625716
0.576094
0.593759
0.593562
0.622198
0.594432
0.625387
0.62418
0.593412
0.59327
0.622054
0.622713
0.594608
0.624082
0.62453
0.593291
0.59277
0.622725
0.622068
0.578529
0.625113
0.597352
0.592952
0.575372
0.62228
0.593355
0.439797
0.597694
0.440928
0.575454
0.444174
0.593269
0.444597
0.605023
0.446014
0.624762
0.445004
0.599516
0.445627
0.619002
0.636639
0.626068
0.671324
0.599656
0.632711
0.619292
0.666008
0.634785
0.669762
0.668206
0.632547
0.633207
0.665789
0.666431
0.635319
0.66837
0.669823
0.633217
0.632549
0.666438
0.665769
0.603949
0.67089
0.623922
0.632762
0.599756
0.66603
0.619317
0.441169
0.623981
0.441219
0.599658
0.444953
0.619131
0.445564
0.631805
0.445591
0.653254
0.446048
0.625996
0.446238
0.647299
0.683322
0.65431
0.721775
0.626309
0.677973
0.647684
0.716091
0.680424
0.720812
0.719285
0.67773
0.678368
0.715792
0.7164
0.682206
0.71947
0.721768
0.678375
0.67771
0.716407
0.715771
0.630969
0.722752
0.65259
0.677994
0.626318
0.716117
0.647667
0.441315
0.652482
0.441619
0.626114
0.44598
0.647417
0.446152
0.660939
0.443158
0.684369
0.446162
0.654923
0.444054
0.67803
0.734812
0.685418
0.779584
0.65532
0.729859
0.678475
0.773958
0.733324
0.779428
0.778394
0.72955
0.730149
0.773673
0.774327
0.736138
0.778613
0.781555
0.730155
0.729529
0.774331
0.773651
0.66037
0.782491
0.684194
0.729887
0.655302
0.773996
0.678475
0.444881
0.683677
0.442517
0.65505
0.446071
0.67803
0.44395
0.692747
0.444109
0.716897
0.443576
0.686574
0.445541
0.711326
0.795877
0.717378
0.847926
0.687108
0.789969
0.712002
0.841326
0.794761
0.847646
0.846996
0.789718
0.790499
0.84128
0.843947
0.798002
0.847066
0.850426
0.790498
0.789697
0.843938
0.841258
0.692737
0.851052
0.718351
0.790008
0.687109
0.841364
0.711981
0.442175
0.717131
0.443997
0.686583
0.44347
0.711332
0.445436
0.723026
0.462856
0.721872
0.448593
0.716302
0.465262
0.715861
0.860986
0.720364
0.907309
0.716518
0.854907
0.716129
0.902426
0.860129
0.90813
0.90653
0.854935
0.858512
0.903285
0.969251
0.862623
0.906812
0.909518
0.858496
0.854909
0.969516
0.903266
0.722401
0.909549
0.721688
0.854911
0.716485
0.902424
0.716097
0.446814
0.723144
0.462868
0.716326
0.448492
0.715885
0.465185
0.722292
0.496236
0.720347
0.472849
0.716112
0.49857
0.712217
0.914551
0.720175
0.966896
0.716376
0.910034
0.712547
0.967215
0.913828
0.967769
0.965581
0.911129
1.00781
0.971506
2.03813
0.91685
0.965894
0.969175
1.00837
0.911119
2.04416
0.971537
0.722069
0.969152
0.718984
0.910031
0.716346
0.96724
0.712503
0.470366
0.719318
0.496214
0.716134
0.472783
0.712247
0.498545
0.719086
0.535456
0.678698
0.507767
0.709951
0.537167
0.666395
0.974956
0.680336
1.01038
0.710302
0.976308
0.666914
1.02716
0.973387
1.01027
1.00518
0.981273
2.32694
1.03334
4.43274
0.977125
1.00555
1.00979
2.33407
0.981313
4.43876
1.0333
0.717557
1.01055
0.677844
0.976336
0.710261
1.02717
0.666868
0.505531
0.676802
0.535434
0.709979
0.507753
0.666427
0.537168
0.6702
0.581486
0.611349
0.547678
0.657838
0.581673
0.603287
1.01083
0.61245
0.98752
0.658353
1.02861
0.603567
1.02175
1.00535
0.987718
0.984097
1.03513
4.28134
1.03584
2.44158
1.01019
0.984767
0.986476
4.32445
1.0351
2.42495
1.03549
0.669631
0.98774
0.610212
1.02861
0.658317
1.02163
0.603554
0.546121
0.609944
0.581474
0.657866
0.547679
0.603302
0.581672
0.607864
0.633494
0.636601
0.593908
0.601923
0.6337
0.637392
0.981198
0.636113
0.780725
0.602141
1.01553
0.63751
0.786939
0.978113
0.780263
0.775115
1.0301
2.41388
0.79872
3.97466
0.980156
0.776309
0.778695
2.39483
1.02978
3.80945
0.799043
0.606485
0.781856
0.635664
1.01541
0.602137
0.787253
0.637514
0.593615
0.636833
0.633483
0.601932
0.593908
0.637393
0.6337
0.643978
0.69564
0.699749
0.648119
0.644661
0.695441
0.699566
0.759645
0.699756
0.703675
0.644774
0.767815
0.69957
0.703261
0.756377
0.703755
0.705474
0.778951
4.489
0.703772
0.734503
0.759801
0.705492
0.703919
4.35365
0.779289
0.734505
0.703772
0.643294
0.703904
0.700093
0.768093
0.644778
0.70326
0.699572
0.647964
0.700195
0.695783
0.644663
0.648119
0.699567
0.695441
0.708521
0.770332
0.776202
0.712736
0.708186
0.770021
0.774968
0.708257
0.776142
0.778619
0.708179
0.707112
0.774944
0.774747
0.709798
0.778585
0.779003
0.707475
0.730018
0.774717
0.774603
0.708512
0.778986
0.778773
0.730027
0.707473
0.774603
0.774716
0.708856
0.77845
0.776518
0.70711
0.70818
0.774747
0.774944
0.713112
0.776484
0.770641
0.708187
0.712736
0.774968
0.770021
0.786365
0.861774
0.869941
0.791136
0.785524
0.861752
0.868001
0.789288
0.870459
0.871744
0.785501
0.785318
0.867986
0.86791
0.789625
0.870959
0.868029
0.78529
0.785178
0.867896
0.867855
0.789428
0.868028
0.871655
0.785178
0.78529
0.867855
0.867896
0.787374
0.87188
0.870245
0.785318
0.785502
0.86791
0.867986
0.79192
0.870344
0.861733
0.785525
0.791137
0.868002
0.861752
0.889627
0.977329
0.978482
0.888049
0.888042
0.977068
0.976989
0.89046
0.978871
0.976981
0.888022
0.887966
0.97698
0.976955
0.88797
0.976962
0.976957
0.887949
0.887919
0.976948
0.976936
0.889426
0.976957
0.976966
0.887919
0.887949
0.976936
0.976948
0.89042
0.976979
0.978743
0.887967
0.888023
0.976955
0.97698
0.888265
0.978345
0.977652
0.888043
0.888049
0.97699
0.977068
1.01255
1.12729
1.12612
1.01066
1.01058
1.12621
1.12612
1.01057
1.12612
1.12612
1.01057
1.01056
1.12612
1.12611
1.01056
1.12612
1.12611
1.01055
1.01054
1.12611
1.12611
1.01056
1.12611
1.12612
1.01054
1.01055
1.12611
1.12611
1.01198
1.12612
1.12612
1.01056
1.01057
1.12611
1.12612
1.0109
1.12613
1.12673
1.01058
1.01066
1.12612
1.12621
1.1706
1.30058
1.30057
1.17068
1.1706
1.30058
1.30057
1.17059
1.30057
1.30057
1.1706
1.17059
1.30057
1.30057
1.17059
1.30057
1.30057
1.17059
1.17059
1.30057
1.30057
1.17059
1.30057
1.30057
1.17059
1.17059
1.30057
1.30057
1.1706
1.30057
1.30057
1.17059
1.1706
1.30057
1.30057
1.17071
1.30057
1.30058
1.1706
1.17068
1.30057
1.30058
0.575118
0.444924
0.592966
0.444315
0.578321
0.444078
0.596601
0.593481
0.593775
0.622881
0.579225
0.595843
0.597959
0.626245
0.594034
0.622898
0.623469
0.596594
0.594875
0.626706
0.624695
0.593464
0.623765
0.622833
0.594844
0.595156
0.624442
0.62503
0.575492
0.623107
0.593551
0.595298
0.578722
0.625477
0.597353
0.444413
0.593204
0.444827
0.578089
0.445251
0.596642
0.445214
0.599346
0.445901
0.618799
0.444183
0.603106
0.44399
0.622907
0.633398
0.61982
0.666714
0.60459
0.637181
0.624223
0.670722
0.633998
0.666679
0.667376
0.637663
0.635306
0.671635
0.668817
0.633335
0.667631
0.666594
0.63511
0.635695
0.668882
0.669726
0.599982
0.666978
0.619577
0.636337
0.604045
0.669705
0.623992
0.445179
0.619057
0.445778
0.603168
0.445359
0.622994
0.445173
0.62577
0.446515
0.647042
0.444159
0.629993
0.443858
0.650646
0.678685
0.648237
0.716818
0.631649
0.682845
0.653318
0.721181
0.67938
0.71672
0.717643
0.684154
0.68144
0.723085
0.720874
0.678544
0.717828
0.716624
0.6815
0.681952
0.720901
0.721726
0.626587
0.717115
0.647968
0.681821
0.631279
0.720859
0.653002
0.446193
0.647322
0.44636
0.629923
0.445309
0.650545
0.444816
0.654658
0.444305
0.677854
0.443766
0.658708
0.442012
0.681952
0.730587
0.679173
0.774674
0.661898
0.735906
0.685961
0.782049
0.731465
0.774604
0.775817
0.737534
0.735319
0.784165
0.781176
0.730384
0.775965
0.774501
0.735321
0.736074
0.781082
0.782436
0.655612
0.775007
0.678873
0.735411
0.661586
0.781231
0.685391
0.446276
0.678155
0.444138
0.658489
0.444641
0.681718
0.442605
0.68614
0.445674
0.710933
0.441658
0.690423
0.44373
0.715474
0.790679
0.711986
0.841922
0.694325
0.799092
0.721121
0.852482
0.79199
0.841968
0.844557
0.800961
0.797547
0.85345
0.848932
0.790542
0.844524
0.842027
0.797425
0.799214
0.848765
0.851747
0.687167
0.842101
0.711933
0.798355
0.694899
0.852362
0.720982
0.44365
0.71098
0.445583
0.690119
0.442171
0.715378
0.444144
0.716416
0.465305
0.715903
0.446491
0.722784
0.462165
0.720625
0.854997
0.716485
0.902546
0.723784
0.867618
0.722886
0.913866
0.858725
0.903708
0.981777
0.867667
0.861142
0.914612
0.907072
0.854972
0.981113
0.903444
0.861158
0.866014
0.907082
0.913325
0.716594
0.902777
0.716165
0.867457
0.724318
0.915339
0.724545
0.448626
0.716219
0.465276
0.723822
0.446917
0.723182
0.462656
0.71615
0.498587
0.712255
0.46967
0.720821
0.495492
0.717818
0.910148
0.712988
0.967181
0.723104
0.921327
0.72021
0.974473
1.02005
0.972108
1.78888
0.92207
0.91432
0.975883
0.965305
0.911315
1.78428
0.971823
0.914323
0.920781
0.965305
0.974482
0.716409
0.967437
0.712566
0.922776
0.723628
0.97659
0.72114
0.472858
0.712665
0.498567
0.722537
0.470106
0.72017
0.495885
0.70999
0.537166
0.666461
0.504816
0.716178
0.535006
0.677804
0.976228
0.667529
1.02601
0.718752
0.982646
0.681661
1.01522
2.02804
1.03213
3.95796
0.983979
0.972938
1.01486
1.00352
0.98158
4.04579
1.0318
0.972943
0.983208
1.00362
1.01003
0.710325
1.02627
0.66696
0.985556
0.719764
1.01323
0.683048
0.507762
0.667014
0.537155
0.718731
0.505209
0.681674
0.535313
0.657901
0.581662
0.603312
0.545591
0.669764
0.581345
0.610386
1.02741
0.603791
1.01968
0.673067
1.01533
0.610383
0.987984
3.68678
1.03343
3.25149
1.0147
1.00371
0.987783
0.980407
1.03351
2.81749
1.03262
1.00375
1.01022
0.980637
0.990435
0.658402
1.0201
0.603573
1.01352
0.67459
0.992927
0.611868
0.547664
0.60353
0.581656
0.673689
0.54604
0.613313
0.581259
0.601937
0.63369
0.637372
0.593585
0.607042
0.633464
0.636873
1.01338
0.637481
0.786252
0.605938
0.98193
0.636316
0.781491
3.27284
0.798311
12.7704
0.981501
0.974109
0.7823
0.771108
1.02677
13.1508
0.7978
0.974184
0.983564
0.771377
0.783239
0.60214
0.787271
0.637489
0.986324
0.60723
0.782675
0.636233
0.593892
0.637374
0.633684
0.609403
0.593633
0.636782
0.633474
0.644643
0.695433
0.699567
0.647929
0.644172
0.695646
0.699973
0.767402
0.699567
0.703224
0.644005
0.763281
0.70025
0.704184
0.703724
0.741126
0.764185
0.753582
0.704534
0.704483
0.778445
0.741141
0.703735
0.753803
0.765038
0.704487
0.704397
0.644755
0.703239
0.699569
0.764584
0.643945
0.704129
0.700368
0.648103
0.699571
0.695424
0.64411
0.647942
0.700299
0.695665
0.708188
0.770011
0.774974
0.712965
0.708693
0.770543
0.776554
0.707084
0.774945
0.774752
0.709118
0.708646
0.776725
0.777889
0.732761
0.774722
0.77461
0.708968
0.70876
0.778966
0.779146
0.707446
0.77461
0.774722
0.708764
0.708836
0.779147
0.778947
0.708179
0.774752
0.774946
0.708599
0.709032
0.777775
0.776714
0.712719
0.774977
0.770001
0.708965
0.712977
0.776551
0.770558
0.785531
0.86174
0.868009
0.791743
0.787364
0.861975
0.870615
0.785323
0.867987
0.867912
0.787613
0.788567
0.870668
0.871075
0.785184
0.867899
0.867858
0.789664
0.789826
0.869022
0.868022
0.785295
0.867858
0.867899
0.789827
0.789676
0.868022
0.869391
0.785503
0.867912
0.867987
0.788426
0.787607
0.871132
0.870661
0.791115
0.868011
0.861726
0.787307
0.791776
0.870615
0.862003
0.888044
0.977051
0.97699
0.889324
0.890722
0.978846
0.977845
0.887969
0.976981
0.976956
0.890833
0.889168
0.977345
0.976979
0.887923
0.976949
0.976937
0.888007
0.887987
0.976974
0.976966
0.887953
0.976937
0.976949
0.887987
0.888356
0.976966
0.976972
0.888024
0.976956
0.976981
0.889218
0.890805
0.976981
0.977325
0.888022
0.97699
0.977034
0.890703
0.889007
0.977817
0.979163
1.01058
1.12618
1.12612
1.01158
1.01066
1.12631
1.12729
1.01056
1.12612
1.12611
1.01061
1.01057
1.12662
1.12612
1.01054
1.12611
1.12611
1.01057
1.01056
1.12612
1.12612
1.01055
1.12611
1.12611
1.01056
1.01057
1.12612
1.12612
1.01058
1.12611
1.12612
1.01057
1.01061
1.12612
1.12662
1.01062
1.12612
1.12616
1.01065
1.01172
1.12785
1.12619
1.1706
1.30058
1.30057
1.17116
1.17068
1.30075
1.30057
1.17059
1.30057
1.30057
1.17061
1.1706
1.30057
1.30057
1.17059
1.30057
1.30057
1.17059
1.17059
1.30057
1.30057
1.17059
1.30057
1.30057
1.17059
1.17059
1.30057
1.30057
1.1706
1.30057
1.30057
1.1706
1.17061
1.30057
1.30057
1.17063
1.30057
1.30058
1.17113
1.17104
1.30058
1.30097
0.579027
0.445045
0.596942
0.435334
0.446752
0.436638
0.446846
0.590082
0.596983
0.616061
0.447277
0.448177
0.447304
0.448008
0.589224
0.615432
0.614421
0.447989
0.447272
0.447761
0.447233
0.589814
0.614638
0.614908
0.447312
0.447999
0.447297
0.447973
0.579961
0.615493
0.598728
0.448018
0.447323
0.448017
0.447421
0.445226
0.599686