/*--------------------------------*- C++ -*----------------------------------*\
| =========                 |                                                 |
| \\      /  F ield         | OpenFOAM: The Open Source CFD Toolbox           |
|  \\    /   O peration     | Version:  2206                                  |
|   \\  /    A nd           | Website:  www.openfoam.com                      |
|    \\/     M anipulation  |                                                 |
\*---------------------------------------------------------------------------*/
FoamFile
{
    version     2.0;
    format      ascii;
    arch        "LSB;label=32;scalar=64";
    class       volScalarField;
    location    "200";
    object      p;
}
// * * * * * * * * * * * * * * * * * * * * * * * * * * * * * * * * * * * * * //

dimensions      [0 2 -2 0 0 0 0];

internalField   nonuniform List<scalar> 
187974
(
-0.0168922
0.00267005
-0.00618461
0.00984216
0.00976158
-0.00612263
0.00304681
-0.0177561
-0.0431291
-0.00572317
-0.0152832
0.0132155
0.0130841
-0.0143697
-0.00505744
-0.0460396
-0.00689352
0.0124494
0.00843112
0.0201464
0.0197517
0.00829957
0.0118762
-0.00845939
-0.00113922
0.0214497
0.0173226
0.0322197
0.0316263
0.0170432
0.0205402
-0.00256265
-0.00662958
0.0256414
0.01405
0.030609
0.0298263
0.0137876
0.0244031
-0.00791683
-0.0240925
0.0245659
0.000649132
0.0188336
0.0180532
0.000868672
0.0230481
-0.0255314
-0.0536068
0.017882
-0.0213534
-0.00110693
-0.00162403
-0.0201093
0.0175627
-0.0516121
-0.0998145
-0.000714841
-0.0551086
-0.0300447
-0.0302614
-0.0533496
0.000123847
-0.0945646
-0.166313
-0.0403716
-0.108945
-0.0792513
-0.079267
-0.107193
-0.0387628
-0.160053
-0.257922
-0.11893
-0.20451
-0.178849
-0.178608
-0.202849
-0.118182
-0.253426
-0.371015
-0.271812
-0.388402
-0.394284
-0.393828
-0.38749
-0.270928
-0.369697
-0.44235
-0.466461
-0.641003
-0.718704
-0.717995
-0.639431
-0.465312
-0.442042
-0.367555
-0.520796
-0.699879
-0.823926
-0.823493
-0.69785
-0.51998
-0.369797
-0.14205
-0.323096
-0.381856
-0.455859
-0.456507
-0.380829
-0.321357
-0.140569
0.107931
-0.0274783
0.0447108
0.032046
0.0319148
0.0437147
-0.0294546
0.112249
0.273933
0.18366
0.320582
0.336108
0.335427
0.32011
0.182111
0.275912
0.334454
0.279479
0.425981
0.448184
0.44807
0.42559
0.278824
0.33683
0.327779
0.301685
0.42969
0.454476
0.454435
0.430044
0.302064
0.329066
0.275768
0.284483
0.383987
0.412125
0.412116
0.384014
0.284455
0.27639
0.189183
0.246401
0.31874
0.348523
0.348529
0.31882
0.24648
0.189425
-0.019043
0.0160741
0.0339796
0.0524925
0.0524366
0.0338531
0.0152847
-0.0182836
-0.0765424
0.049013
0.00738477
-0.0730039
-0.0737733
0.00576386
0.0463759
-0.0747912
-0.0143151
-0.00418369
0.0170922
0.0213347
0.0256985
0.030795
0.0273617
-0.00444981
0.0114039
0.0173678
0.0237908
0.0273161
0.0297433
0.0317932
0.0266792
0.0129148
0.0211151
0.0273516
0.0349661
0.040835
0.0446579
0.0466597
0.0417935
0.0263154
0.0212883
0.037193
0.0556579
0.0712919
0.0795126
0.0786438
0.0681577
0.0444161
0.0114138
0.0437772
0.081604
0.114028
0.128618
0.120373
0.0977945
0.0608205
-0.0159561
0.0371155
0.100039
0.154216
0.176145
0.158398
0.123841
0.0799901
-0.0765954
0.00364876
0.0904082
0.159099
0.184201
0.162077
0.124965
0.0860473
-0.221637
-0.0898356
0.0198664
0.0968865
0.122779
0.0966204
0.0612898
0.0429202
-0.384077
-0.260373
-0.180303
-0.125532
-0.107512
-0.124633
-0.122955
-0.0650947
-0.557013
-0.524655
-0.580484
-0.639892
-0.654495
-0.60421
-0.483369
-0.271873
-0.595324
-0.743624
-1.0232
-1.27301
-1.34203
-1.17411
-0.867702
-0.484955
-0.374781
-0.640401
-0.973192
-1.25384
-1.32952
-1.15474
-0.845121
-0.483236
0.000788728
-0.176825
-0.301357
-0.341807
-0.346326
-0.352958
-0.319951
-0.227261
0.289867
0.23249
0.278138
0.362726
0.383763
0.29699
0.164512
0.047333
0.404319
0.409275
0.499986
0.595
0.617086
0.535544
0.379695
0.191291
0.399009
0.420331
0.509685
0.584975
0.602191
0.542662
0.41546
0.232331
0.350556
0.357916
0.446965
0.509747
0.524672
0.48147
0.385612
0.230345
0.252305
0.356892
0.459865
0.509792
0.509763
0.45986
0.356825
0.252261
-0.00467986
0.0334561
-0.0229569
-0.0170452
-0.017963
-0.0231625
0.0337528
-0.00331668
-0.0525989
-0.0422076
-0.055813
-0.0318528
-0.0242677
-0.0315379
-0.02114
-0.049373
-0.0118867
-0.176908
0.0828562
0.361822
0.453675
0.279339
0.0660141
0.0794996
0.0329939
0.0299932
0.059979
0.0910965
0.106919
0.0961022
0.0675971
0.0446232
0.0481107
0.0483904
0.0574137
0.0633371
0.0692878
0.0783495
0.0772139
0.0606753
0.0553829
0.0630479
0.0827508
0.0978709
0.107825
0.115368
0.109905
0.0895155
0.0461885
0.077219
0.128168
0.170832
0.188964
0.183706
0.157533
0.111885
0.0164962
0.0945167
0.189094
0.278215
0.31257
0.27951
0.21722
0.172634
-0.0417128
0.112919
0.252152
0.379279
0.426096
0.366847
0.25396
0.192721
-0.221007
0.0457604
0.263604
0.430156
0.490466
0.404003
0.249614
0.159552
-0.502848
-0.14574
0.084415
0.315905
0.410114
0.26725
0.0513231
-0.00556145
-0.925847
-0.643793
-0.643664
-0.603091
-0.578911
-0.615427
-0.637876
-0.455623
-1.18555
-1.31155
-1.98862
-2.68738
-2.99921
-2.5304
-1.82008
-1.04889
-0.831331
-1.3877
-2.39272
-3.50845
-3.95064
-3.26465
-2.13973
-1.09828
-0.0259161
-0.473612
-0.739438
-0.682294
-0.539484
-0.684234
-0.714853
-0.415053
0.54684
0.404446
0.699488
1.21236
1.45497
1.08776
0.572181
0.202568
0.726621
0.702487
1.01982
1.39379
1.52544
1.30001
0.899432
0.43809
0.636757
0.655036
0.880524
1.1016
1.17253
1.05364
0.805444
0.427498
0.543682
0.52853
0.700975
0.84127
0.884078
0.816072
0.654123
0.371063
0.354875
0.475452
0.609664
0.701759
0.721742
0.665458
0.549712
0.354569
-0.0141706
0.0427463
0.0520281
0.0731703
0.0741991
0.0490682
0.0401472
-0.0140712
-0.165853
0.0200413
0.0578218
0.129198
0.133797
0.119974
0.0591888
-0.159417
0.0171054
0.0653012
0.136288
0.179234
0.191397
0.16559
0.0855508
0.035197
0.05129
0.0645376
0.100642
0.119457
0.1288
0.127751
0.106824
0.0662553
0.068299
0.0712175
0.0976791
0.125656
0.133204
0.128281
0.112129
0.0926913
0.0847346
0.0944741
0.137789
0.173709
0.189165
0.18222
0.156134
0.144631
0.0958382
0.132474
0.221927
0.296171
0.328148
0.300108
0.231052
0.18537
0.0939183
0.177785
0.357048
0.561974
0.634909
0.530857
0.371692
0.266037
0.0582243
0.24357
0.540461
1.03166
1.16341
0.924856
0.458304
0.323449
-0.0923819
0.290646
0.698231
1.16637
1.38675
1.10467
0.655843
0.36888
-0.47524
0.16561
0.855235
1.89004
2.51947
1.74575
0.771207
0.244432
-1.20514
-0.627656
0.152791
1.88276
3.22998
1.727
0.0192159
-0.442851
-1.90409
-2.31282
-3.46835
-3.73251
-3.96328
-3.69056
-3.25725
-1.78535
-1.48549
-2.99954
-6.79039
-14.6803
-19.8257
-14.0456
-6.11081
-2.11766
-0.0429711
-0.818054
-1.386
0.364936
5.31909
0.123172
-1.42611
-0.601833
0.873766
0.926895
2.13749
5.14679
7.30749
4.73772
1.81889
0.475734
1.03057
1.21318
2.09318
3.26533
3.79575
2.93129
1.77054
0.720335
0.854765
0.983858
1.41184
1.86035
2.01568
1.76177
1.26178
0.61786
0.674575
0.722266
0.970266
1.18098
1.24795
1.1389
0.900206
0.491191
0.416598
0.581249
0.74733
0.865019
0.890597
0.817448
0.668862
0.416434
-0.0159895
0.0405599
0.0438572
0.0648628
0.0643141
0.0415395
0.0389807
-0.0163319
-0.161318
0.0202421
0.026367
0.0213489
-0.00929636
0.037518
-0.00509169
-0.158495
0.0152791
0.106815
0.151171
0.170197
0.170511
0.107383
0.0327918
0.0349946
0.0506569
0.0642234
0.0959207
0.1279
0.133699
0.135841
0.111307
0.0646346
0.0694017
0.0716098
0.106189
0.13584
0.149919
0.148029
0.12364
0.0846053
0.0904261
0.103728
0.150852
0.195482
0.215723
0.203309
0.16814
0.124253
0.109997
0.154791
0.25111
0.342263
0.374465
0.335328
0.25813
0.180482
0.118593
0.21943
0.422644
0.663225
0.755287
0.615255
0.407491
0.25907
0.090576
0.300933
0.601786
1.18935
1.28525
1.08959
0.570455
0.330956
-0.0432814
0.401779
0.957535
1.69202
2.16338
1.59407
0.89877
0.410612
-0.421043
0.350993
1.46826
3.54917
7.2145
3.19161
1.3148
0.329689
-1.18699
-0.44659
1.32415
6.69427
17.4587
6.22562
0.945008
-0.372738
-2.01031
-2.6379
-3.70965
5.39876
96.3442
3.97495
-3.50998
-1.92907
-1.62624
-3.84488
-11.5265
-60.014
-53.8507
-9.77011
-2.36627
-0.0455258
-0.915078
-1.2737
15.1188
164.129
11.8255
-1.49898
-0.618113
0.944078
1.24083
3.47552
10.7468
17.1987
9.5234
2.93613
0.59327
1.08116
1.4277
2.60082
4.23964
4.94943
3.83612
2.18681
0.794991
0.892264
1.0911
1.61373
2.1502
2.34245
2.02953
1.43524
0.659023
0.695702
0.779928
1.05499
1.29324
1.36945
1.24541
0.976584
0.515793
0.4115
0.601714
0.773755
0.896529
0.923183
0.846169
0.68863
0.411288
-0.00521165
0.0345621
-0.0124454
-0.00865789
-0.0097404
-0.0158631
0.0267438
-0.00931586
-0.0502787
0.00267088
0.0586488
0.0730868
0.0722444
0.102372
0.0907421
-0.0558867
0.0245003
0.000458588
0.0295908
-0.0476234
-0.0563285
0.025237
0.183305
0.0937611
0.0452241
0.0584088
0.0855781
0.118733
0.127271
0.124146
0.0964777
0.0677675
0.0543033
0.0656
0.0909532
0.10708
0.123106
0.121954
0.0980477
0.0690499
0.0626098
0.0861354
0.112586
0.152192
0.16176
0.153195
0.132152
0.0995228
0.0621009
0.104916
0.18167
0.235232
0.267291
0.241608
0.205052
0.153004
0.0497937
0.155687
0.282964
0.416316
0.449937
0.407413
0.312561
0.219516
0.0044385
0.182756
0.413272
0.606572
0.588149
0.582989
0.376211
0.226495
-0.134153
0.205363
0.574339
0.946859
1.10532
0.909073
0.533216
0.22232
-0.448377
0.0459331
0.638093
1.38662
1.81322
1.32814
0.57439
0.0803364
-0.952574
-0.589053
-0.0997601
1.08258
1.90499
1.02152
-0.128088
-0.42053
-1.34906
-1.77792
-2.69688
-3.03052
-3.15256
-3.01424
-2.5075
-1.23585
-0.988976
-2.12755
-4.39989
-8.58226
-10.4904
-8.31793
-4.08941
-1.36385
-0.00415609
-0.606175
-1.05061
-0.05254
2.11345
-0.234567
-1.07536
-0.467312
0.677119
0.751902
1.63207
3.62305
4.92813
3.34339
1.41361
0.329139
0.823962
1.02183
1.65733
2.43622
2.80129
2.22137
1.4172
0.53208
0.72594
0.864983
1.22724
1.58396
1.70823
1.50269
1.09232
0.506684
0.588641
0.658194
0.876997
1.06232
1.12017
1.02538
0.810164
0.42833
0.343252
0.518032
0.662598
0.763077
0.783917
0.719517
0.586057
0.343072
-0.017257
0.0108292
0.0234423
0.0315311
0.0311384
0.0225721
0.0110781
-0.0163205
-0.0561125
0.0328966
-0.0167025
-0.093402
-0.095306
-0.0197927
0.0306888
-0.0531263
0.00875172
-0.0188183
-0.0306481
-0.0663214
-0.072833
-0.024099
0.0336143
0.0121524
0.0291186
0.0280903
0.0338814
0.040494
0.0423409
0.0422033
0.0391353
0.0197113
0.0364717
0.037125
0.0543563
0.0651608
0.0687732
0.0635624
0.0530839
0.0299968
0.0400708
0.0586738
0.0694352
0.0802134
0.0845877
0.0817799
0.0700351
0.0403332
0.0241609
0.061086
0.0875536
0.101237
0.106776
0.109266
0.0987493
0.0668648
-0.00109628
0.062505
0.105295
0.121338
0.127091
0.137968
0.126698
0.0783671
-0.0616606
0.0238507
0.105848
0.142006
0.150685
0.160012
0.136894
0.0866793
-0.184346
-0.0570955
0.0604131
0.124626
0.139507
0.133389
0.0949072
0.0571302
-0.381492
-0.237492
-0.11637
-0.0471435
-0.0305959
-0.0388849
-0.0718859
-0.0507743
-0.611095
-0.55877
-0.588508
-0.603918
-0.6077
-0.578586
-0.495249
-0.283783
-0.698329
-0.872357
-1.21285
-1.49249
-1.55563
-1.37661
-1.00782
-0.551838
-0.441957
-0.744632
-1.16734
-1.51393
-1.6072
-1.38471
-0.99745
-0.559779
0.040331
-0.14431
-0.229795
-0.204151
-0.18889
-0.255561
-0.286039
-0.213619
0.390364
0.369285
0.506589
0.692905
0.740214
0.57625
0.335511
0.129818
0.514189
0.565507
0.737874
0.895674
0.929924
0.800934
0.559805
0.290226
0.494786
0.541964
0.679724
0.793017
0.816485
0.73111
0.549667
0.309768
0.421431
0.450988
0.570623
0.657928
0.677998
0.619546
0.491922
0.29624
0.239956
0.339245
0.436472
0.483493
0.483495
0.436501
0.339378
0.240012
-0.00579035
0.00566123
0.00393677
0.0158959
0.0161155
0.00448677
0.00433362
-0.00726022
-0.021148
-0.000888269
0.00696659
0.0349153
0.0358956
0.00934613
-0.00190492
-0.0223476
0.000666714
0.0135482
0.0123732
0.0223272
0.0221142
0.0137089
0.0127097
0.00117972
0.00316009
0.0198594
0.0174871
0.0287106
0.0285194
0.0183631
0.0198157
0.00425498
-0.00458515
0.0220412
0.0144142
0.0268082
0.0268898
0.0153768
0.0236499
-0.00104646
-0.0148241
0.0240448
0.00648282
0.0207037
0.020767
0.0073016
0.0248352
-0.0132739
-0.03623
0.0209862
-0.00904695
0.00713007
0.00742063
-0.00778717
0.0223075
-0.0334204
-0.0712805
0.00754209
-0.0352308
-0.0152054
-0.0147855
-0.033386
0.00935741
-0.0698191
-0.123743
-0.0229257
-0.0764224
-0.0514825
-0.0512644
-0.0749773
-0.0212455
-0.122726
-0.197258
-0.0842306
-0.148403
-0.123758
-0.123733
-0.147874
-0.0840148
-0.198501
-0.287135
-0.204475
-0.290311
-0.284763
-0.284768
-0.289525
-0.204663
-0.28763
-0.345621
-0.356528
-0.482529
-0.529946
-0.530262
-0.482432
-0.356654
-0.345694
-0.285851
-0.401903
-0.529509
-0.620134
-0.620852
-0.530485
-0.403132
-0.286432
-0.0977969
-0.245809
-0.28612
-0.349249
-0.349953
-0.28732
-0.247188
-0.0989915
0.114196
-0.00851723
0.0583304
0.0447011
0.0442109
0.0579428
-0.00915844
0.113791
0.255281
0.172221
0.294255
0.305196
0.304912
0.294532
0.172274
0.257182
0.308859
0.258178
0.389892
0.408345
0.408195
0.390229
0.258285
0.309843
0.304149
0.281179
0.398617
0.421217
0.421225
0.399497
0.282216
0.306125
0.257346
0.266442
0.358379
0.384468
0.384387
0.358504
0.266757
0.257921
0.177095
0.231013
0.298233
0.326033
0.32603
0.298299
0.231037
0.177299
0.0686053
0.0409873
0.071045
0.0702351
0.104248
0.0721645
0.105821
0.0968261
0.0532653
0.0768083
0.102136
0.13726
0.0951608
0.12164
0.106748
0.0630828
0.0710038
0.130236
0.138982
0.115373
0.126607
0.0909968
0.0707731
0.0627206
0.138768
0.127315
0.126168
0.114349
0.0590256
0.0758257
0.0525413
0.134475
0.0987118
0.123221
0.0927784
0.0294932
0.0703184
0.0406712
0.106364
0.0704167
0.103356
0.0685551
0.0778758
0.0538696
0.0975028
0.0775014
0.110739
0.0748728
0.131255
0.0791559
0.0730717
0.103494
0.0975578
0.124308
0.117322
0.155955
0.0694665
0.087638
0.0980841
0.118052
0.13077
0.144475
0.157029
0.0630206
0.0980853
0.0885052
0.129908
0.118023
0.156434
0.142152
0.0567489
0.104065
0.073139
0.127755
0.0965382
0.152568
0.116158
0.0475928
0.0980177
0.0532915
0.10814
0.0726556
0.130554
0.0787995
0.109061
0.0683612
0.142059
0.0990427
0.146237
0.116472
0.203045
0.114667
0.112082
0.163025
0.128913
0.172777
0.172871
0.235161
0.107807
0.149171
0.165707
0.163537
0.172697
0.222649
0.244432
0.0986674
0.165892
0.149218
0.172439
0.158261
0.24542
0.217044
0.0830815
0.163144
0.111885
0.167645
0.128603
0.225825
0.169236
0.0626361
0.14203
0.0651662
0.142735
0.0953103
0.189102
0.108816
0.158585
0.0843545
0.198912
0.127595
0.218186
0.157688
0.296254
0.183744
0.167945
0.250186
0.192292
0.253037
0.273431
0.372471
0.188789
0.245304
0.275682
0.244845
0.274506
0.375354
0.40636
0.170855
0.275933
0.245821
0.275906
0.247988
0.407613
0.372258
0.127497
0.250563
0.168025
0.257194
0.189272
0.373085
0.273224
0.0736377
0.198474
0.0800763
0.209148
0.121245
0.293321
0.134629
0.216849
0.0931983
0.237986
0.172353
0.327306
0.192134
0.469339
0.27876
0.225125
0.340496
0.304309
0.426879
0.480301
0.652473
0.312331
0.351437
0.400209
0.435735
0.468972
0.630133
0.642757
0.279235
0.40076
0.353813
0.469962
0.431481
0.644888
0.632254
0.189864
0.342347
0.22674
0.426358
0.308149
0.654323
0.481295
0.0982655
0.239714
0.0964979
0.329713
0.171972
0.463651
0.194769
0.252244
0.0344884
0.249431
0.214549
0.436709
0.205358
0.590203
0.365169
0.256148
0.384735
0.492276
0.694457
0.624493
0.950572
0.425697
0.405286
0.458889
0.728317
0.718012
0.992374
1.12103
0.381009
0.458972
0.4064
0.719031
0.728285
1.12124
0.99225
0.254275
0.385873
0.25764
0.697937
0.485205
0.949215
0.622902
0.113171
0.250132
0.0338687
0.430673
0.219177
0.588712
0.209703
0.248304
-0.0969122
0.124788
0.224436
0.603039
0.0953463
0.667836
0.403024
0.150214
0.319021
0.644009
0.997826
0.744826
1.42921
0.490367
0.360931
0.444561
1.0428
1.18156
1.51324
1.85166
0.43129
0.444808
0.362096
1.18184
1.04227
1.85351
1.51804
0.265379
0.31998
0.14952
0.996123
0.644185
1.42566
0.746184
0.0546844
0.124327
-0.110207
0.602049
0.226074
0.667791
0.0926632
0.0509302
-0.494897
-0.398917
0.0576671
0.658812
-0.447832
0.0816948
0.265355
-0.389437
-0.295025
0.740337
1.49244
0.20035
1.49503
0.40987
-0.260284
-0.199929
1.59289
1.97938
1.64726
2.79509
0.318074
-0.19942
-0.254816
1.97641
1.58859
2.74457
1.65601
0.0850848
-0.289913
-0.384106
1.48688
0.741113
1.50337
0.204592
-0.149256
-0.395929
-0.493437
0.65619
0.061467
0.0921796
-0.443449
-0.642896
-1.09946
-1.48328
-0.686063
-0.121165
-1.70482
-2.5728
-0.621778
-1.59431
-1.95789
-0.0109103
1.41963
-2.75197
-3.2015
-0.579562
-2.05081
-2.2569
1.5619
2.60886
-3.24045
-3.32675
-0.596608
-2.25654
-2.04397
2.6212
1.57967
-3.3265
-3.19391
-0.636832
-1.952
-1.58865
1.44325
-0.0128591
-3.15624
-2.73456
-0.64056
-1.48032
-1.09535
-0.11062
-0.676296
-2.55467
-1.69303
-1.8236
-1.36188
-2.16243
-2.10988
-3.04946
-2.56914
-5.34313
-2.53484
-2.40542
-3.27473
-3.2731
-3.80508
-5.92452
-12.2281
-2.99936
-3.52036
-3.95324
-3.87899
-4.31749
-12.8665
-16.1782
-2.68185
-3.95483
-3.52596
-4.32217
-3.83498
-16.1885
-12.9373
-1.98465
-3.28001
-2.40479
-3.75991
-3.26356
-12.2915
-5.93388
-1.30735
-2.16213
-1.3614
-3.03776
-2.09814
-5.35206
-2.56331
-2.14151
-0.691791
-1.1089
-2.55803
-5.26401
-1.19487
-1.95794
-3.25492
-1.19644
-1.40862
-5.77072
-12.3957
-2.05999
-1.1536
-3.94462
-1.45524
-1.45243
-13.0586
-17.2975
-0.965586
2.45684
-3.51974
-1.45885
-1.43192
-17.3097
-13.1383
2.45754
-1.00545
-2.39218
-1.38376
-1.19285
-12.4678
-5.78528
-1.1342
-2.03857
-1.38297
-1.10725
-0.681934
-5.26634
-2.557
-1.98567
-1.19141
-0.71698
0.232512
0.345767
-0.712421
-1.32569
0.567031
1.43511
-0.715594
0.436859
0.793009
-1.31848
-0.270877
1.68865
4.02738
-0.532465
0.90656
1.15382
0.0240835
3.7428
4.44138
6.43304
-0.655228
1.15783
0.903717
3.74033
-0.0208778
6.43799
4.4348
-0.731129
0.79425
0.436675
-0.249089
-1.30323
4.0171
1.67689
-0.473615
0.337699
0.229235
-1.34352
-0.715511
1.42741
0.553594
0.576321
0.625696
0.842296
0.816809
1.59922
1.07912
1.78216
1.08543
0.963237
1.28425
1.86856
3.97129
1.91537
2.91791
1.45257
1.37833
1.53438
4.33472
6.03568
3.05088
3.82419
1.20515
1.52834
1.35945
6.03984
4.33092
3.82352
3.06017
0.698218
1.27445
0.960758
3.96245
1.83945
2.92863
1.91621
0.402976
0.838242
0.631486
1.58358
0.813892
1.79324
1.07223
0.900392
0.655401
0.815812
1.09685
1.53202
0.950009
1.22913
1.30935
0.902641
1.08788
1.78883
2.45491
1.39087
1.78302
1.52722
1.14624
1.23774
2.70246
3.14203
1.89911
2.06478
1.38458
1.23622
1.14381
3.13726
2.70366
2.06437
1.89593
1.01909
1.09199
0.90635
2.47803
1.8032
1.78252
1.3992
0.698054
0.817688
0.655247
1.53867
1.09069
1.2387
0.945584
0.803082
0.543539
0.670228
0.90733
1.13791
0.720054
0.905077
1.0527
0.726016
0.850607
1.2779
1.59428
0.989417
1.16483
1.17303
0.879051
0.925235
1.68265
1.81413
1.21231
1.28341
1.09894
0.925188
0.878582
1.81397
1.68116
1.28337
1.21211
0.885978
0.850358
0.726301
1.59433
1.28236
1.16465
0.989445
0.65562
0.669874
0.544156
1.14182
0.907686
0.904169
0.718531
0.654279
0.465663
0.566961
0.685331
0.845809
0.542674
0.649066
0.816067
0.640896
0.705724
0.912463
1.06719
0.746595
0.817708
0.884103
0.746154
0.769498
1.10627
1.16716
0.871309
0.897596
0.841077
0.76949
0.746186
1.16714
1.10616
0.897581
0.871297
0.701493
0.705711
0.641347
1.06709
0.912491
0.817666
0.746617
0.530934
0.566364
0.46542
0.84544
0.686306
0.648955
0.543204
0.111199
0.0658724
0.10969
0.0652823
0.1246
0.0701176
0.116321
0.129743
0.0921908
0.122564
0.105487
0.142294
0.0965879
0.1392
0.127451
0.113734
0.135399
0.126191
0.133014
0.129576
0.144672
0.118411
0.125031
0.11032
0.134431
0.129986
0.144368
0.129128
0.0924409
0.12283
0.0885079
0.137912
0.0962887
0.14028
0.0982226
0.0591431
0.105672
0.0599905
0.110535
0.0676281
0.112961
0.0688189
0.117152
0.0840633
0.142524
0.0756929
0.122995
0.0984711
0.154205
0.134625
0.1218
0.173259
0.103252
0.144486
0.136899
0.182462
0.131691
0.155737
0.165408
0.134481
0.150239
0.173264
0.190323
0.114758
0.165736
0.154207
0.150939
0.136069
0.190405
0.173908
0.0925953
0.163758
0.122195
0.147521
0.106039
0.183097
0.138017
0.0682167
0.140794
0.0812824
0.121756
0.0753502
0.153768
0.098046
0.159363
0.119114
0.215103
0.109229
0.169992
0.143859
0.2316
0.181502
0.192754
0.2625
0.153237
0.2024
0.222299
0.288615
0.18899
0.260243
0.28142
0.194492
0.212858
0.288253
0.312987
0.174206
0.281994
0.254575
0.212955
0.194813
0.313061
0.287729
0.136248
0.258227
0.189917
0.202949
0.153301
0.288291
0.221095
0.0998526
0.206813
0.0981058
0.168757
0.109934
0.230684
0.1429
0.238882
0.159094
0.331384
0.160824
0.258742
0.20331
0.370247
0.29366
0.319617
0.453075
0.252218
0.331082
0.378334
0.518763
0.32659
0.476423
0.532519
0.335218
0.365215
0.545752
0.609463
0.298763
0.534224
0.477415
0.365303
0.334494
0.609402
0.544609
0.21636
0.456829
0.315423
0.330754
0.25078
0.517482
0.377267
0.110907
0.319328
0.144478
0.258053
0.16049
0.369623
0.203798
0.367858
0.206964
0.439907
0.227372
0.414736
0.266798
0.513507
0.527195
0.515871
0.915104
0.428231
0.610607
0.525603
1.08895
0.632312
1.03742
1.22099
0.653434
0.747294
1.21106
1.80251
0.563447
1.22314
1.04024
0.747478
0.652354
1.81871
1.21127
0.365411
0.910514
0.521777
0.608961
0.42716
1.09725
0.523962
0.182637
0.441039
0.208739
0.414565
0.228468
0.512072
0.267386
0.465989
0.258554
0.648134
0.307219
0.595468
0.354697
0.878728
0.938691
0.678943
1.05101
0.628269
1.17109
0.934711
1.44657
1.16336
1.10691
1.3047
1.30897
1.69196
1.52126
1.73181
1.01847
1.3041
1.10743
1.69026
1.30107
1.73171
1.51226
0.53373
1.05043
0.678872
1.16643
0.62778
1.44021
0.933428
0.245992
0.648232
0.261412
0.595858
0.307672
0.878168
0.355839
0.655527
0.184919
0.769775
0.40579
0.925613
0.347701
1.287
1.10486
0.851801
1.64998
0.984086
1.54208
1.42364
2.92056
1.38706
1.77747
2.3327
1.61852
1.86363
3.13796
5.10262
1.16609
2.33315
1.77622
1.86687
1.6088
5.10547
3.13737
0.697981
1.64962
0.853018
1.5362
0.982694
2.92563
1.42178
0.291139
0.770549
0.185855
0.925057
0.406558
1.2874
0.350716
0.770651
-0.37288
0.216534
0.355902
1.33533
-0.17601
1.12467
1.74565
0.375057
1.82047
1.4936
3.27199
1.52166
6.17761
2.51949
1.96117
3.25338
3.56628
5.03618
6.67292
9.69824
1.88709
3.24232
1.99036
5.11179
3.56535
9.67298
6.7127
0.858395
1.85429
0.393265
3.27566
1.4924
6.21487
1.53772
0.168839
0.23285
-0.365016
1.33634
0.359905
1.13895
-0.165466
0.00186117
-1.80233
-2.72142
-0.441864
0.936825
-1.97453
-2.70492
1.7345
-2.85091
-3.08391
1.3348
6.37216
-2.71275
5.0082
3.23378
-3.04735
-2.87371
6.91158
12.4635
6.74491
78.9706
1.88741
-2.8729
-2.9988
12.3484
6.95963
78.9729
6.98329
0.185038
-3.03606
-2.82732
6.41664
1.35594
5.23136
-2.65485
-0.616876
-2.69925
-1.78784
0.954916
-0.428885
-2.66055
-1.95982
-3.2775
-2.96109
-6.13216
-2.67211
-3.63276
-3.81684
-9.92166
-3.73865
-6.92004
-13.7741
-3.81395
3.81218
-11.7164
-51.2996
-3.96389
-14.4269
-18.0456
5.55917
87.4594
-56.7859
6.7687
-3.68362
-18.0533
-14.5167
87.5478
5.82714
5.06749
-56.851
-3.44582
-13.8529
-6.93294
4.05713
-3.75604
-51.3917
-11.7193
-2.29792
-6.13765
-2.95048
-3.588
-2.65745
-9.92051
-3.81349
-6.10997
-1.38805
-2.15308
-3.91537
-10.0687
-1.72509
-2.80551
-13.959
-2.24876
-0.941157
-11.9277
-55.188
-2.85278
9.32215
-19.8122
-0.720261
3.98038
-61.8291
-523.389
12.6687
191.836
-14.7782
3.9786
-0.673505
-521.878
-61.9402
191.896
12.7417
-6.79797
-0.844422
-2.22484
-55.3158
-11.9391
9.38
-2.8648
-2.99268
-2.15259
-1.38309
-10.0746
-3.91669
-2.81882
-1.73204
-1.40944
0.649547
1.66377
-0.937082
-1.51276
0.917888
2.85967
0.071017
1.94642
4.84396
-1.29745
11.9903
3.44479
10.8138
5.32648
5.36314
8.02793
15.395
160.906
12.3893
21.2533
0.390968
8.03978
5.35486
160.952
15.4629
21.2533
12.4122
-1.40392
4.89063
1.95125
12.0465
-1.30433
10.8367
3.44693
-0.818017
1.66412
0.639322
-1.52192
-0.944832
2.86034
0.910253
1.87024
1.20272
1.90281
1.25563
2.96706
1.44421
2.56342
4.70209
2.03042
3.13692
3.50352
9.7172
2.75967
4.68041
7.29163
3.28468
4.13013
10.9573
17.5579
4.9108
6.09133
5.13393
4.13015
3.29404
17.5584
10.9777
6.09145
4.91232
2.09889
3.15001
2.01561
9.73782
3.50517
4.68258
2.76061
0.939604
1.89285
1.19293
2.96763
1.25211
2.56428
1.441
1.78382
1.02567
1.38528
1.44414
2.21689
1.15947
1.60957
2.94193
1.5586
2.00034
2.63969
3.89307
1.83225
2.37202
3.79592
2.12505
2.3285
4.30599
5.02834
2.53321
2.7938
3.25807
2.32855
2.12652
5.02814
4.30432
2.79368
2.53242
2.08787
2.00041
1.55814
3.88938
2.63458
2.37096
1.83079
1.21639
1.38546
1.02149
2.21219
1.44121
1.60841
1.15869
1.25905
0.76621
0.973957
1.09828
1.44688
0.833653
1.06901
1.76188
1.06006
1.25421
1.62689
2.04664
1.16787
1.39214
2.01569
1.30569
1.38505
2.16863
2.36258
1.45193
1.54448
1.86079
1.38503
1.30563
2.36249
2.16806
1.54445
1.45174
1.41256
1.25406
1.05998
2.0459
1.62591
1.39188
1.16752
0.980617
0.972763
0.76741
1.44608
1.09764
1.06862
0.833267
0.900961
0.592413
0.721103
0.783131
0.981442
0.622093
0.753319
1.139
0.824189
0.910333
1.06023
1.25189
0.864792
0.954605
1.24796
0.968579
1.00011
1.3
1.37668
1.01757
1.05084
1.18093
1.00009
0.968542
1.37666
1.29985
1.05082
1.01753
0.970097
0.910251
0.824119
1.2517
1.05996
0.954525
0.864697
0.723289
0.720915
0.592258
0.981134
0.782726
0.753189
0.62197
0.112246
0.0673263
0.118153
0.0564078
0.103934
0.059767
0.104966
0.137969
0.0993719
0.141573
0.0869346
0.125054
0.0873903
0.128889
0.133547
0.129623
0.143543
0.115172
0.124326
0.115406
0.131168
0.125735
0.142966
0.128483
0.125354
0.116609
0.123404
0.107502
0.094853
0.141075
0.0995083
0.127048
0.0955135
0.123751
0.0833854
0.0645829
0.116856
0.0664963
0.111417
0.057169
0.104013
0.0591416
0.124184
0.0932757
0.152059
0.0642319
0.110568
0.0804109
0.137636
0.147802
0.134548
0.181879
0.0906973
0.128673
0.113278
0.157499
0.149351
0.173478
0.191051
0.114366
0.127002
0.147962
0.160488
0.135487
0.191528
0.173623
0.129178
0.113911
0.160635
0.14605
0.105626
0.182685
0.134586
0.128365
0.0903523
0.15187
0.116246
0.0715152
0.153195
0.0934875
0.11141
0.0632239
0.136878
0.0809559
0.167659
0.138188
0.230513
0.0900042
0.148931
0.112565
0.203882
0.202288
0.220776
0.290208
0.123024
0.178094
0.181672
0.249963
0.214798
0.293363
0.318802
0.171484
0.180846
0.244788
0.260916
0.194985
0.320045
0.292313
0.180237
0.161961
0.261734
0.244099
0.150533
0.291399
0.219533
0.170625
0.122506
0.251193
0.18244
0.104155
0.231117
0.137627
0.144872
0.0882987
0.203564
0.110581
0.257742
0.195856
0.364019
0.122748
0.226725
0.148609
0.317508
0.333407
0.373512
0.51891
0.208076
0.283173
0.303431
0.418094
0.372417
0.555355
0.617543
0.28095
0.318231
0.437445
0.48964
0.340858
0.620443
0.553114
0.318558
0.280411
0.490427
0.438886
0.250141
0.522056
0.373611
0.285263
0.208182
0.419857
0.299069
0.154245
0.365073
0.196743
0.230784
0.121856
0.317697
0.151946
0.406418
0.258053
0.479113
0.171398
0.347392
0.182587
0.404189
0.610752
0.486241
1.0897
0.333624
0.492732
0.467942
0.77602
0.750758
1.23576
1.70671
0.518513
0.575654
0.860169
1.024
0.660088
1.72821
1.21561
0.576217
0.519787
1.02662
0.886506
0.423799
1.10256
0.492418
0.494337
0.338545
0.787591
0.468116
0.220833
0.480786
0.259734
0.347107
0.173951
0.401572
0.184977
0.570065
0.35116
0.852049
0.219301
0.419739
0.236862
0.605095
1.08654
0.908001
1.47864
0.485946
0.8579
0.633508
0.979067
1.2866
1.57017
1.9478
0.901975
1.00525
1.01299
1.15702
1.18676
1.9403
1.5758
1.0059
0.910316
1.15647
1.01365
0.60229
1.48264
0.907818
0.862395
0.494436
0.982409
0.647522
0.302179
0.852197
0.35226
0.424861
0.221583
0.617978
0.240673
0.898453
0.344022
1.26557
0.265649
0.628085
0.17042
0.711745
1.58989
1.40033
2.93385
0.661385
1.02432
0.789449
1.50644
2.1627
3.23689
5.74893
1.06184
1.22102
1.59934
1.97893
1.69737
5.6037
3.2246
1.22056
1.06655
1.98257
1.61486
0.957184
2.92817
1.40027
1.0455
0.659581
1.52195
0.793436
0.402362
1.26694
0.346412
0.628903
0.269255
0.719336
0.172686
1.31276
-0.17949
1.1123
0.147449
0.702027
-0.335169
0.161238
3.19979
1.51034
6.00475
0.788107
1.58213
0.285727
1.32078
7.45176
6.45646
16.0194
1.7285
2.13862
1.41711
2.34384
3.53319
15.867
6.47063
2.14045
1.70576
2.32872
1.42446
1.46898
6.01997
1.52573
1.61887
0.792506
1.33351
0.298072
0.354169
1.12742
-0.169016
0.710872
0.15049
0.181452
-0.324395
0.926037
-1.95809
-2.6463
-0.55342
-0.0274844
-1.56699
-2.27903
6.19801
-2.64126
4.90712
0.0772937
1.25585
-2.385
-2.60472
17.3916
6.57974
86.6625
1.35626
2.28119
-2.58327
-2.57607
6.72136
85.8164
6.83562
2.26551
1.32892
-2.59068
-2.54313
1.34491
5.14317
-2.58879
1.24405
0.0951552
-2.6675
-2.37189
-0.432916
-2.60399
-1.94227
-0.007642
-0.548289
-2.27494
-1.56371
-3.55014
-3.74888
-9.58142
-1.99857
-2.71362
-2.52331
-4.91554
3.72313
-11.2946
-49.9053
-2.86429
-3.02261
-5.31438
-9.1281
97.1144
-55.1868
-79.3993
-3.01927
-3.12156
-9.43761
-11.0818
5.68
-79.7689
-55.2869
-3.14127
-2.9429
-11.0867
-9.5204
-3.65844
-50.0787
-11.3153
-3.02354
-2.85353
-9.21593
-5.33497
-2.61971
-9.59604
-3.74256
-2.71487
-1.99426
-4.92476
-2.52521
-9.7505
-1.68521
-2.75475
-2.56137
-4.8351
-1.18303
-1.78644
-53.656
-2.79689
9.1718
-5.26744
-9.28813
-1.75356
-0.668766
12.4725
203.954
-9.61992
-11.8923
-0.547624
2.09562
-60.1414
204.023
12.5419
-11.898
-9.6935
2.10477
-0.555093
-11.5539
9.22552
-2.81299
-9.353
-5.29103
-0.678621
-1.7528
-3.84238
-2.76944
-1.69424
-4.84688
-2.56269
-1.74721
-1.19127
-1.48717
0.908897
2.83506
-0.689891
-1.19208
0.5907
1.48539
11.7719
3.41511
10.557
-1.10159
0.0584253
1.71878
4.15105
164.087
12.0874
20.7484
0.165702
3.0459
4.4803
6.43989
15.1897
20.7498
12.0855
3.05539
0.157763
6.44168
4.48981
-1.28504
10.5523
3.40587
0.0474718
-1.11008
4.16041
1.71565
-0.920079
2.82664
0.905591
-1.1874
-0.695776
1.48044
0.589251
2.94292
1.42841
2.55284
0.86276
1.63387
1.13598
1.74762
9.52773
2.74852
4.65069
1.87314
4.10249
1.85941
2.92531
17.198
4.87962
6.04811
4.37728
5.98194
3.12024
3.70126
10.7433
6.04821
4.88105
5.98385
4.3823
3.70149
3.09645
3.46758
4.65283
2.75058
4.09968
1.86575
2.91497
1.85813
1.23871
2.55474
1.4282
1.63282
0.85915
1.74644
1.1382
2.18495
1.15104
1.59441
1.13734
1.65728
0.971589
1.32428
3.83477
1.81516
2.34895
1.93794
2.74502
1.49514
1.89259
4.94931
2.50846
2.76637
3.0463
3.46099
2.00883
2.19061
4.24067
2.76638
2.50879
3.46131
3.04069
2.19042
2.00866
2.60218
2.34933
1.81545
2.73989
1.93589
1.892
1.49331
1.42724
1.59478
1.15067
1.65626
1.13561
1.32536
0.970491
1.43499
0.829648
1.06296
0.945619
1.21949
0.742617
0.940737
2.02934
1.16134
1.38396
1.36207
1.67823
1.02375
1.21121
2.34245
1.44335
1.53529
1.76865
1.91107
1.25983
1.33497
2.15041
1.53529
1.44338
1.91091
1.76871
1.33491
1.25968
1.61398
1.38398
1.16143
1.6773