/*--------------------------------*- C++ -*----------------------------------*\
| =========                 |                                                 |
| \\      /  F ield         | OpenFOAM: The Open Source CFD Toolbox           |
|  \\    /   O peration     | Version:  2206                                  |
|   \\  /    A nd           | Website:  www.openfoam.com                      |
|    \\/     M anipulation  |                                                 |
\*---------------------------------------------------------------------------*/
FoamFile
{
    version     2.0;
    format      ascii;
    arch        "LSB;label=32;scalar=64";
    class       volScalarField;
    location    "200";
    object      yPlus;
}
// * * * * * * * * * * * * * * * * * * * * * * * * * * * * * * * * * * * * * //

dimensions      [0 0 0 0 0 0 0];

internalField   uniform 0;

boundaryField
{
    movingWall
    {
        type            calculated;
        value           uniform 0;
    }
    front
    {
        type            calculated;
        value           uniform 0;
    }
    back
    {
        type            calculated;
        value           uniform 0;
    }
    sfera1
    {
        type            calculated;
        value           nonuniform List<scalar> 
274
(
2597.87
2552.51
9144.72
9137.8
14353.3
11907.6
14804
11779
9452.66
9981.37
10510.8
2569.47
9519.65
9882.94
10345.1
5310.66
5855.25
2575.26
3172.92
1278.29
1272.1
3206.86
5928.32
9626.55
5057.58
9575.37
5299.58
5052.07
2743.45
2995.55
955.156
2101.43
2105.22
997.942
1555.54
1321.92
1005.24
1203.86
5435.5
2964.13
376.627
1092.34
958.434
4132.9
918.818
3786.94
2143.19
3752.24
2087.13
1173.65
5433.23
1656.68
4997.86
5478.44
5478.38
1998.43
2005.64
1743.34
1774.94
1520.76
5139.4
656.379
877.533
416.544
2457.52
1493.57
4721.46
2458.23
1518.49
4727.1
5110.22
2294.3
1997.76
2237.03
697.648
706.429
2230.21
1670.38
1452.32
1587.78
2757.56
942.526
1022.75
779.944
2268.86
2034.04
2239.52
1952.94
1045.75
1576.85
1529.66
5170.27
2413.02
3775.29
4755.5
3381.53
3885.42
5828.36
1013.42
1014
783.317
918.947
536.45
266.468
342.233
375.665
435.751
685.37
241.495
1554.19
1084.57
2520.41
2101.38
235.509
2495.59
2296.55
1215.83
432.662
1899.48
2525.55
2294.55
1213.55
467.029
1883.21
2525.94
1907.69
1075.12
2245.15
1598.12
1578.22
5162.37
2426.35
4678.37
3363.04
5819.77
5283.81
4220.9
4056.32
5151.01
4222.93
5150.89
2778.96
2985.53
960.321
1584.38
1217.64
959.861
968.43
3026.94
1655.56
1686.21
448.632
1156.08
3492.08
4997.89
932.206
302.295
3993.32
1035.5
1661.64
3490
306.257
2107.42
1752.47
2032.9
1659.2
1522.97
2017.28
1831.44
1661.6
2020.7
686.35
939.555
590.555
3690.86
3800.9
3670.39
3796
1656.77
899.021
2459.64
2225.26
755.996
768.307
744.674
2491.86
2297.5
1697.29
1521.85
1661.72
2697.19
2316.29
2349.52
2742.1
1186.02
1211.96
1120.75
1668.82
1087.22
1644.81
913.507
2255.61
2444.6
2694.43
2307.29
2331.95
1655.7
1117.78
1090.65
1055.36
1184.72
1043.78
3261.91
2794.79
824.601
978.996
623.373
303.572
367.388
210.607
2364.26
3570.91
4963.78
2500.25
681.478
661.277
432.672
268.03
1541.72
1746.79
5292.31
3944.73
3442.26
1069.78
7631.79
1856.8
794.801
2546.15
2365.55
699.183
2514.21
1012.72
3766.31
3245.48
2776.13
2360.85
3562.03
4962.02
2491.35
273.27
1538.4
1739.44
3939.43
3432.09
1076.87
7625.85
3893.75
3327.85
6527.09
3649.59
3676.46
5092.31
4341.51
5461.96
5296.58
3323.07
6504.37
4051.88
3627.97
3675.06
5092.82
4343.01
5455.68
5283.5
)
;
    }
    sfera2
    {
        type            calculated;
        value           nonuniform List<scalar> 
280
(
2208.23
2250.81
4587.77
12155.4
14629.6
5483.96
9966.91
9417.82
4616.31
11987.9
14462.9
5479.83
9896.56
9404.31
1994.64
9835.32
10684.7
10162.8
6037.9
1280.09
5569.68
2033.29
9804.04
10599.8
10123.8
6024.33
1274.48
5566.81
1010.9
1010.81
1718.97
1723.83
1084.49
4368.08
1679.11
2285.05
1841.11
1673.89
1713.85
2287.14
1879.29
1673.1
919.11
1036.47
1235.24
834.957
2375.21
3477.39
3502.44
2463.28
4301.65
1976.32
1644.21
1948.49
4062.26
931.588
1034.27
832.731
1244.6
2378.62
3473.25
2461.34
3506.68
4307.16
1979.75
1950.72
1649.3
4061.18
1801.97
952.901
1022.83
588.301
1796.32
956.111
1007.5
616.786
2116.24
590.971
580.74
1875.83
1629.75
1717.61
1717.05
1906.55
2222.84
629.332
578.758
1900.64
1625.11
1711.62
1738.32
1011.99
1446.3
875.593
1201.1
918.34
295.667
335.967
976.382
1793.35
2142.32
2228.34
888.748
743.819
1235.57
999.502
174.486
1155.53
425.562
277.772
2618.75
3079.47
3809.19
1435.85
502.104
168.241
1577.71
4455.64
2288.39
3712.81
838.145
1477.48
3928.9
951.316
1874.82
2392.88
3488.71
455.304
1513.22
2865.07
4290.64
1772.96
1038.78
3320.3
1450.62
871.484
1189.01
1473.94
918.131
291.284
971.765
335.694
1794.62
2231.93
901.098
734.266
1245.85
998.66
206.253
1151.88
466.218
296.497
2623.75
3089.21
3813.55
1439.55
504.994
1577.51
167.306
4466.97
2327.58
3708.3
830.417
1481.31
3914.22
950.376
1875.06
2394.29
3480.83
459.933
1496.74
2851.9
6597.95
4291.41
1748.66
1083.33
1037.91
4367.29
5136.08
4122.46
1477.99
5269.49
5857.28
6627.14
5110.91
5468.19
5322.13
5161.28
1016.62
5145.4
4135.47
1467.77
5275.53
5862.33
5108.47
5464.32
5323.47
5145.16
1059.88
1068.36
2369.09
1033.35
1470.99
1137.26
1038.61
2330.88
1108.48
1913.24
2677.61
2488.5
4079.2
3315.77
1936.99
468.173
1119.71
1166.09
2826.24
2145.77
1638.9
597.496
2669.28
714.87
1099.12
449.508
784.894
629.338
625.667
1122.93
475.473
1661.1
374.817
2427.74
3460.67
972.864
4642.62
2281.13
479.986
3742.89
4879.35
4105.92
3395.38
4166.67
3442.43
5260.37
2697.07
2467.78
4092.85
1941.34
2147.72
466.843
1101.15
2654.19
1150.81
2819.05
2144.15
1663.98
605.131
709.341
1086.5
492.19
782.509
693.995
600.464
1126.43
475.877
1671.78
368.534
2425.2
960.351
3508.32
4673.35
2261.41
527.421
3721.81
4159.55
4101.26
3394.22
4880.91
3437.6
5260.44
)
;
    }
}


// ************************************************************************* //
