/*--------------------------------*- C++ -*----------------------------------*\
| =========                 |                                                 |
| \\      /  F ield         | OpenFOAM: The Open Source CFD Toolbox           |
|  \\    /   O peration     | Version:  2206                                  |
|   \\  /    A nd           | Website:  www.openfoam.com                      |
|    \\/     M anipulation  |                                                 |
\*---------------------------------------------------------------------------*/
FoamFile
{
    version     2.0;
    format      ascii;
    arch        "LSB;label=32;scalar=64";
    class       volScalarField;
    location    "800";
    object      p;
}
// * * * * * * * * * * * * * * * * * * * * * * * * * * * * * * * * * * * * * //

dimensions      [0 2 -2 0 0 0 0];

internalField   nonuniform List<scalar> 
187974
(
-0.0196537
-0.00562163
-0.0228754
-0.0544051
-0.0531574
-0.0186551
-0.00319267
-0.0200427
-0.000843953
-0.017311
-0.0472313
-0.0604837
-0.0640124
-0.0492973
-0.0171628
-0.00545448
0.0328721
0.0679849
0.0745104
0.0925266
0.090846
0.0740727
0.0676629
0.0313736
0.0512904
0.123837
0.166603
0.246371
0.246241
0.167099
0.124348
0.0509246
0.0405334
0.154466
0.218802
0.356467
0.358214
0.221273
0.156035
0.0410141
-0.0165603
0.113365
0.143378
0.260381
0.261644
0.145162
0.113914
-0.0170962
-0.102713
0.0224999
-0.0153592
0.0415556
0.0417207
-0.0151642
0.0217097
-0.10333
-0.184923
-0.0666034
-0.159753
-0.146619
-0.147801
-0.161946
-0.0686106
-0.184861
-0.247226
-0.117008
-0.213333
-0.18649
-0.187807
-0.215831
-0.118622
-0.247133
-0.315855
-0.175859
-0.252953
-0.198124
-0.198437
-0.253648
-0.177443
-0.316529
-0.400358
-0.321711
-0.42088
-0.412
-0.411898
-0.422099
-0.322081
-0.402195
-0.435428
-0.505898
-0.66201
-0.746156
-0.745777
-0.662032
-0.506202
-0.43787
-0.313645
-0.530632
-0.6904
-0.840476
-0.84021
-0.688534
-0.530146
-0.318164
-0.0399826
-0.279253
-0.300443
-0.390724
-0.39161
-0.298944
-0.277543
-0.0397636
0.240147
0.0633008
0.187713
0.170183
0.170041
0.186532
0.0602395
0.244981
0.41375
0.294865
0.486704
0.503856
0.503094
0.4864
0.292818
0.415852
0.463436
0.390468
0.586237
0.612471
0.612386
0.585914
0.389683
0.466564
0.438489
0.403223
0.571216
0.601681
0.601671
0.57181
0.403838
0.440276
0.362866
0.372909
0.50224
0.53762
0.537636
0.50237
0.372962
0.363784
0.247564
0.32112
0.414658
0.452581
0.452612
0.414822
0.321294
0.247952
-0.0614795
-0.0169541
-0.220353
-0.104225
-0.119115
-0.224737
-0.0247858
-0.0625863
-0.011624
0.129034
0.218583
0.474028
0.456605
0.217009
0.12032
-0.0119091
-0.0349002
-0.0188271
0.0144449
0.0899122
0.227101
0.082672
0.0314453
-0.000231902
-0.010691
0.0234226
0.0747615
0.13734
0.1772
0.111821
0.0669787
0.0365899
0.0122773
0.0593136
0.110979
0.15361
0.1712
0.140479
0.106538
0.0658616
0.010304
0.0771003
0.143129
0.194938
0.211556
0.185462
0.144402
0.0914435
-0.0314721
0.0505979
0.127414
0.189392
0.211091
0.181246
0.139253
0.0904895
-0.106072
-0.018284
0.0556474
0.112361
0.135951
0.110479
0.0868392
0.0645688
-0.202305
-0.107607
-0.0393544
0.00528267
0.0239745
0.0104971
0.0102536
0.0237121
-0.330543
-0.21305
-0.137071
-0.0847693
-0.0676801
-0.0879982
-0.084796
-0.038408
-0.474061
-0.373681
-0.3377
-0.311286
-0.303581
-0.31621
-0.276265
-0.156606
-0.600356
-0.611029
-0.723223
-0.814572
-0.839284
-0.786363
-0.630126
-0.361792
-0.573262
-0.780355
-1.12351
-1.41336
-1.49394
-1.31727
-0.977542
-0.552767
-0.278404
-0.601566
-0.981373
-1.30573
-1.39778
-1.20143
-0.870312
-0.501986
0.152383
-0.0499135
-0.175482
-0.210089
-0.214636
-0.234948
-0.231918
-0.185829
0.45779
0.398682
0.467444
0.574738
0.599689
0.48983
0.309359
0.124693
0.558655
0.570189
0.687014
0.804065
0.830448
0.729338
0.529512
0.275711
0.5281
0.556521
0.669513
0.762742
0.783805
0.709741
0.548351
0.310229
0.455659
0.464641
0.577368
0.655934
0.674601
0.620565
0.499237
0.299636
0.324926
0.458
0.588595
0.651315
0.651308
0.588678
0.458018
0.32498
-0.0153467
0.283335
0.550244
-0.03277
0.0326758
0.641537
0.306135
-0.00124088
-0.124145
-0.0446265
-0.173624
-0.33555
-0.171075
-0.203199
-0.0799163
-0.129742
-0.0637348
-0.102505
-0.106817
-0.745027
0.162905
-0.127069
0.0312866
0.0644756
-0.0526804
-0.0383951
0.0574496
0.215242
0.548785
0.229852
0.111588
0.0354787
-0.0119391
0.0591484
0.17256
0.351767
0.566999
0.33593
0.192941
0.0991447
0.00375552
0.136615
0.264389
0.462927
0.624592
0.437477
0.264865
0.167153
-0.0442278
0.116029
0.240426
0.394869
0.484108
0.376632
0.239847
0.155558
-0.144207
0.0201019
0.108525
0.189849
0.254696
0.174282
0.119378
0.112073
-0.259469
-0.0749086
-0.0242836
-0.0386627
-0.0166061
-0.0450065
-0.0135085
0.0365914
-0.432029
-0.151044
-0.0072439
0.160031
0.267304
0.105879
-0.0283474
-0.0112301
-0.695925
-0.336321
-0.173236
0.10826
0.294847
0.0179089
-0.219007
-0.167362
-1.05638
-0.811942
-0.952332
-0.992576
-0.992098
-1.01017
-0.943802
-0.627888
-1.19359
-1.42656
-2.24098
-2.9688
-3.20809
-2.83809
-2.0694
-1.18185
-0.683481
-1.37051
-2.50669
-3.83477
-4.4227
-3.53326
-2.23318
-1.12008
0.239344
-0.279146
-0.514422
-0.402273
-0.230587
-0.409844
-0.511023
-0.305846
0.833529
0.678245
1.05782
1.66855
1.95001
1.52289
0.89564
0.368614
0.980905
0.953595
1.34173
1.78366
1.93662
1.673
1.19327
0.598704
0.830444
0.852662
1.12916
1.39505
1.47942
1.33758
1.03617
0.557168
0.699703
0.678794
0.89286
1.06506
1.11727
1.03447
0.834701
0.476413
0.453209
0.606071
0.774254
0.888886
0.913705
0.843906
0.699435
0.452981
-0.400857
-0.0577417
-1.87795
1.46307
1.36233
-1.9742
-0.111013
-0.419848
-0.413472
-0.0688309
0.052693
2.52236
-7.18159
-0.0151443
-0.17524
-0.410587
-0.242162
-0.449964
-0.688151
-0.195808
3.19852
-0.515157
-0.46856
-0.10035
-0.144076
-0.0845508
-0.00415163
-0.320267
-2.33914
0.0474668
0.0968666
0.00426654
-0.0884276
-0.0201734
-0.0854068
-0.959282
-2.60854
-0.374227
0.0775829
0.059156
-0.0488898
0.0773039
0.142693
0.385898
0.465365
0.423052
0.23182
0.155902
-0.051639
0.113869
0.311609
0.842925
1.50271
0.78041
0.316429
0.193314
-0.102588
0.0703987
0.284801
0.602672
1.10409
0.705787
0.281695
0.195224
-0.203783
-0.00458411
0.139843
0.212265
6.50582
0.110594
0.081077
0.142211
-0.411105
-0.0587782
0.159308
-0.254427
-0.939204
-0.125177
0.131611
0.0969587
-0.803989
-0.237318
0.282771
1.6169
6.29333
1.34295
0.199856
-0.0703408
-1.46803
-1.05648
-0.659467
-0.147664
-1.50522
-0.20741
-0.782336
-0.805497
-1.99617
-2.65662
-4.16692
-4.18985
-0.853415
-4.34022
-3.99568
-2.09114
-1.29265
-3.02911
-7.15889
-16.7018
-27.6759
-15.8538
-6.45287
-2.17274
0.36039
-0.431426
-0.72058
1.90036
7.78901
1.59996
-0.83218
-0.382818
1.29306
1.39938
2.89352
6.31254
8.70419
5.86143
2.51011
0.752419
1.37199
1.59405
2.63255
3.97275
4.57041
3.59192
2.25099
0.955203
1.10545
1.25887
1.7705
2.29582
2.47563
2.18137
1.58991
0.793368
0.863663
0.918348
1.2208
1.47472
1.55485
1.42455
1.1356
0.625406
0.530486
0.737139
0.943574
1.0888
1.12028
1.03043
0.846635
0.530486
-0.322633
0.320609
-1.61576
1.12012
1.3673
-1.53031
0.340361
-0.30864
-0.186447
-0.171047
0.354061
7.06501
0.924186
0.97484
-0.126526
-0.171342
-0.217759
-0.444612
-0.924681
-2.18755
-0.147949
-1.33527
-0.50037
-0.0423308
-0.139208
-0.105439
-0.0429995
0.498492
0.621508
0.393918
0.0853829
0.0346713
-0.111618
-0.083749
-0.104844
-0.0431661
0.979509
0.203383
0.0604696
0.030242
-0.0798873
-0.0546278
-0.104181
-0.144786
1.39309
0.265408
0.0922127
0.0495761
-0.0422796
0.00771367
0.00309681
-0.0339904
1.84895
0.439853
0.173583
0.0936895
-0.0132747
0.108948
0.254798
-0.126409
1.17776
0.501185
0.319732
0.196007
-0.0578788
0.209526
0.603442
0.984931
-3.67348
1.15243
0.562077
0.28663
-0.278424
0.136326
0.622361
1.62692
8.79662
1.35396
0.551841
0.207061
-0.708204
-0.0622566
0.883664
2.43452
10.0971
2.22766
0.713193
0.0118627
-1.44558
-0.945452
0.363165
6.32416
30.043
5.54555
0.0463103
-0.762746
-2.11185
-3.12676
-5.11931
0.57126
61.1723
-0.869597
-4.87793
-2.30154
-1.41053
-3.90951
-12.2284
-65.4977
-58.5894
-10.394
-2.43031
0.404199
-0.400724
-0.0856469
19.6592
171.275
16.0193
-0.483283
-0.350902
1.40298
1.82255
4.5039
12.5828
19.4869
11.2593
3.87971
0.915886
1.44521
1.8657
3.24162
5.09997
5.89084
4.64802
2.75786
1.05395
1.15798
1.39473
2.01723
2.64234
2.86383
2.50301
1.80401
0.847933
0.893921
0.992426
1.32729
1.61378
1.70477
1.55694
1.23224
0.658446
0.526601
0.765043
0.979173
1.13086
1.16371
1.069
0.873929
0.52656
0.103206
0.219583
0.190279
-0.264878
-0.167405
0.191332
0.254654
0.100605
0.0988683
-0.186176
-0.219176
-0.24126
-2.9042
-0.438255
-0.0462501
0.115427
-0.0218251
-0.25059
-0.979109
-4.15137
-2.95813
-1.41107
-0.258731
0.0529942
-0.067598
-0.0497688
-0.193566
-0.710274
-1.44536
-0.539202
-0.0928301
0.0422164
-0.0873416
-0.124678
-0.274394
-0.552554
-0.651077
-0.345673
-0.127886
-0.0211081
-0.06763
-0.135059
-0.265706
-0.518465
-0.0412668
-0.265714
-0.107244
-0.0323219
-0.0124736
-0.0639775
-0.148046
-0.45489
0.460285
-0.172225
0.00240611
0.028445
0.0513772
0.148496
0.31804
0.345142
0.902031
0.484642
0.342206
0.183033
0.016727
0.298875
0.844041
1.61162
0.935916
1.38079
0.712384
0.274843
-0.183288
0.174603
0.575445
0.880498
0.837454
0.842006
0.527205
0.181162
-0.543547
-0.0954391
0.499015
1.37075
1.95674
1.26402
0.405462
-0.0463683
-1.01025
-0.758469
-0.231621
1.73654
4.02777
1.48091
-0.328607
-0.582467
-1.31696
-1.933
-3.04138
-3.3581
-2.27495
-3.4233
-2.90202
-1.3896
-0.776478
-2.08966
-4.70863
-10.4933
-15.247
-10.0188
-4.36091
-1.37041
0.355658
-0.251245
-0.53584
0.908109
3.46921
0.699089
-0.606014
-0.296373
1.04981
1.19018
2.30259
4.62002
6.09775
4.30596
2.04101
0.566342
1.12942
1.38068
2.14909
3.06206
3.48568
2.81086
1.85877
0.732688
0.95894
1.12821
1.56985
1.99562
2.14229
1.89945
1.40466
0.66664
0.766678
0.84948
1.12041
1.34722
1.41757
1.30256
1.03792
0.555114
0.445044
0.666092
0.848235
0.97396
0.99996
0.91966
0.752272
0.445023
-0.0557624
-0.000832185
-0.106816
0.225385
0.199983
-0.104603
-0.00112511
-0.0500135
-0.0702626
-0.18087
-0.26314
-0.223229
-0.220235
-0.250857
-0.160578
-0.0669007
-0.0302058
-0.123314
-0.263084
-0.397431
-0.287789
-0.287454
-0.166462
-0.057738
-0.0368343
-0.087537
-0.17673
-0.279188
-0.277392
-0.222039
-0.129708
-0.0521877
-0.0473784
-0.10916
-0.220306
-0.351877
-0.392582
-0.283605
-0.156562
-0.0627563
-0.0388029
-0.0997324
-0.211364
-0.352643
-0.396532
-0.272356
-0.139107
-0.0523943
0.00491324
-0.0226772
-0.0685137
-0.13677
-0.152858
-0.0858997
-0.0251206
-0.00305957
0.0424718
0.0928089
0.193856
0.319886
0.372451
0.277622
0.168724
0.0853307
-0.00272249
0.121563
0.328466
0.58626
0.683166
0.474971
0.26489
0.127887
-0.147715
-0.00383398
0.157162
0.282895
0.312315
0.245843
0.145356
0.0706711
-0.35954
-0.220516
-0.0857981
0.0430119
0.080391
-0.000216339
-0.0827154
-0.0668927
-0.567569
-0.537147
-0.562439
-0.520762
-0.502092
-0.550912
-0.520785
-0.312496
-0.603319
-0.829921
-1.22586
-1.56905
-1.65746
-1.44365
-1.04497
-0.576891
-0.263007
-0.617783
-1.08585
-1.49235
-1.60984
-1.3479
-0.944741
-0.532271
0.284301
0.0863056
0.0345482
0.0965609
0.119889
0.016465
-0.0876266
-0.109176
0.640618
0.633027
0.829318
1.069
1.12781
0.918358
0.589304
0.269052
0.732923
0.805623
1.02986
1.2269
1.26875
1.10703
0.794093
0.42512
0.672235
0.733695
0.910434
1.05279
1.08189
0.97426
0.740599
0.422795
0.560921
0.597533
0.751371
0.862303
0.887765
0.813698
0.649588
0.393577
0.316679
0.44572
0.571969
0.632422
0.632477
0.572154
0.446075
0.316931
0.0547723
0.0462835
0.0810367
0.0638422
0.0684887
0.0767831
0.0477817
0.0553259
0.0413198
-0.00717812
0.0200321
0.0452918
0.04455
0.016999
-0.00847936
0.0407272
0.0100514
-0.0151907
-0.00799422
-0.0100845
-0.0109798
-0.0119233
-0.0155055
0.0102801
-0.0304601
-0.0587192
-0.0793564
-0.104736
-0.106577
-0.083308
-0.0578037
-0.027283
-0.0389566
-0.0762422
-0.125692
-0.16868
-0.169391
-0.126032
-0.0792334
-0.0414408
-0.0325368
-0.0606454
-0.108211
-0.143837
-0.143414
-0.106375
-0.0615757
-0.0321261
-0.00574382
0.00284135
-0.0114053
-0.004587
-0.00366443
-0.00935951
0.00234842
-0.00535825
-0.00174091
0.053861
0.0725675
0.126294
0.126162
0.07356
0.0537258
-0.000765132
-0.0462618
0.0345195
0.0424571
0.0927026
0.0914655
0.0413457
0.0326544
-0.0481862
-0.124269
-0.0415263
-0.0547803
-0.020681
-0.0224018
-0.0569886
-0.0445005
-0.127231
-0.211914
-0.172895
-0.208445
-0.200121
-0.201531
-0.209458
-0.175701
-0.213386
-0.254773
-0.325222
-0.406242
-0.468482
-0.469869
-0.407779
-0.327495
-0.255424
-0.164763
-0.349452
-0.429759
-0.543739
-0.544921
-0.431294
-0.352191
-0.165343
0.0576295
-0.149814
-0.128411
-0.202692
-0.203433
-0.129351
-0.151712
0.056875
0.286881
0.119786
0.257818
0.244589
0.244216
0.258121
0.119369
0.2874
0.423566
0.31071
0.500376
0.516138
0.515977
0.501362
0.311306
0.427073
0.457461
0.388096
0.577139
0.601507
0.601468
0.578037
0.388749
0.459359
0.428001
0.395744
0.558429
0.587996
0.588106
0.559872
0.397553
0.431129
0.353036
0.363681
0.488352
0.52256
0.522508
0.488693
0.364334
0.353963
0.240709
0.312319
0.402545
0.439278
0.439317
0.402757
0.312516
0.241126
0.127325
0.0340635
0.181567
-0.0733509
0.151593
-0.0416909
0.13275
0.245537
0.139722
0.304002
0.0587886
0.281898
0.0493838
0.370138
0.54915
0.2977
0.487787
0.0673976
-0.829094
0.212859
0.240321
0.193922
0.493661
0.286381
-0.816452
0.0913762
0.548025
0.113735
0.0391971
0.293408
0.129204
0.273243
0.0596167
0.231639
0.0475646
-0.0464006
0.170262
0.0312839
0.144307
-0.0732066
0.133791
-0.0412063
0.200943
0.110744
0.244465
-0.0258094
0.144137
-0.00879039
0.195833
0.341903
0.237328
0.402543
0.0614646
0.23364
0.146627
0.564578
0.565647
0.42883
0.607518
0.35989
1.09268
0.739923
2.36378
0.347017
0.610344
0.432074
1.10124
0.271695
2.40402
0.756654
0.165365
0.404146
0.237695
0.316378
0.0700797
0.564271
0.164841
0.0577064
0.243588
0.112255
0.146247
-0.0255715
0.204001
0.0162368
0.263609
0.114822
0.250144
0.0478554
0.21815
0.0517658
0.256964
0.433396
0.250785
0.399731
0.17424
0.567174
0.222856
0.539884
0.62154
0.421438
0.525597
0.764387
2.15365
0.536285
1.13212
0.469527
0.526995
0.424333
2.19946
0.777762
1.14564
0.614359
0.266288
0.402206
0.250752
0.595512
0.197446
0.535972
0.213632
0.139592
0.250315
0.114199
0.229595
0.0502963
0.242611
0.043531
0.241088
0.0373964
0.158109
0.058882
0.240903
0.0183729
0.19674
0.377875
0.142092
0.238503
0.210513
0.482473
0.152539
0.280267
0.483357
0.243492
0.314836
0.528149
0.865855
0.266425
0.303586
0.393766
0.310143
0.237524
0.854003
0.507773
0.283938
0.27962
0.238825
0.229226
0.134805
0.460591
0.202766
0.267689
0.14169
0.114737
0.150912
0.0292959
0.235222
0.0488297
0.185179
-0.0144887
0.127901
-0.0647907
0.0213809
0.00844361
0.178002
-0.0545086
0.0396528
0.187053
-0.0068712
-0.0107104
0.12533
0.21129
-0.03759
-0.239625
0.260506
-0.0197673
0.0368503
0.164874
0.198727
-0.493864
0.0116295
0.181421
0.0303835
-0.0330534
0.170863
0.177375
-0.175539
-0.530708
0.0994937
-0.0266251
-0.0205442
0.196968
0.112301
-0.294596
-0.0826344
0.0173932
0.00905531
-0.0709717
0.163809
-0.000506067
-0.00305877
-0.0765144
-0.00121085
-0.151068
-0.0203386
-0.0622406
0.0320586
-0.1131
0.112449
-0.0304656
-0.0241471
0.0477695
0.0190534
-0.192767
0.113964
0.0142349
-0.0121968
0.0696591
0.12741
-0.220918
1.01193
-0.0624851
-0.105148
-0.051525
0.127512
0.0620809
0.981708
-0.299172
-0.130328
-0.119966
-0.0374172
0.039328
-0.0331037
-0.268003
-0.0316894
-0.0380153
0.0810719
-0.083029
-0.0290742
-0.15908
-0.0111666
-0.0796977
0.0864414
-0.128999
-0.020035
-0.284021
-0.126545
-0.110466
0.125085
-0.248277
0.18519
0.112144
-0.0903693
0.110562
0.132807
0.10149
0.248931
1.2067
0.268851
0.200465
0.404221
0.040801
0.437646
1.45352
5.2275
0.155364
0.406089
0.199771
0.420737
-0.00746807
5.2599
1.44859
-0.014437
0.109355
-0.0955338
0.0541718
0.101953
1.19604
0.234998
-0.15645
-0.132068
-0.294417
0.0953372
-0.123314
0.168585
-0.257292
-0.21611
-0.662803
-0.692231
-0.29995
0.158822
-0.801792
-0.587648
0.019408
-0.689617
-0.683416
0.225118
1.15132
-0.540378
-0.272227
0.293813
-0.65728
-0.647993
1.37136
4.31637
-0.287938
-2.03108
0.108729
-0.64846
-0.658297
4.30847
1.35994
-1.94809
-0.350323
-0.176584
-0.684531
-0.691486
1.14107
0.211169
-0.328446
-0.56458
-0.341977
-0.695303
-0.668506
0.13997
-0.30518
-0.607194
-0.807184
-0.941114
-1.22233
-1.73184
-1.04346
-0.794483
-1.98799
-3.17081
-1.00845
-1.84646
-2.22832
-0.746201
-0.321275
-3.33234
-3.69195
-0.991817
-2.29028
-2.38963
-0.334801
-1.44067
-3.59959
-0.514244
-0.994103
-2.39069
-2.2922
-1.50062
-0.404282
-0.514978
-3.61793
-0.953346
-2.23154
-1.85045
-0.386525
-0.776934
-3.71025
-3.35148
-0.814954
-1.73864
-1.22536
-0.812245
-1.04776
-3.18539
-1.99272
-2.06406
-1.37758
-2.30914
-2.37853
-3.64307
-2.64727
-5.71529
-2.8338
-2.57624
-3.61015
-3.85118
-4.3435
-6.33955
-14.015
-3.20549
-3.9142
-4.49429
-4.29333
-1.76932
-14.8787
-23.1115
-2.97186
-4.49685
-3.92289
-1.76966
-4.31443
-23.1234
-14.9533
-2.24612
-3.61903
-2.57941
-4.36111
-3.87737
-14.0858
-6.36376
-1.42929
-2.31325
-1.38101
-3.66372
-2.38261
-5.73763
-2.64988
-2.23262
-0.541286
-0.976718
-2.558
-5.54222
-0.918884
-1.50973
-3.52184
-1.05084
-1.26047
-6.07849
-14.0315
-1.56645
0.0494503
-4.41565
-1.30722
-1.29991
-14.9018
-23.5043
0.292446
4.50601
-3.84753
-1.30708
-1.2752
-23.5186
-14.9833
4.50742
0.254072
-2.50783
-1.2268
-1.04434
-14.1082
-6.10511
0.0907654
-1.52441
-1.36767
-0.973418
-0.527415
-5.55563
-2.56237
-1.53505
-0.916139
-0.515246
0.489867
0.649845
-0.366238
-0.81824
0.989515
2.07362
-0.448864
0.773138
1.20301
-0.75769
0.971693
2.38481
5.08243
-0.223297
1.33886
1.627
1.33765
5.81615
5.54977
7.76548
-0.368287
1.63191
1.33751
5.8135
1.2988
7.77148
5.54672
-0.502845
1.20673
0.77509
1.01561
-0.72875
5.07414
2.37551
-0.277597
0.641913
0.486198
-0.827531
-0.370131
2.07044
0.976262
0.899227
0.873817
1.13888
1.24447
2.22919
1.45145
2.28633
1.51806
1.29005
1.66885
2.55764
4.97268
2.44299
3.59044
1.94713
1.78059
1.96158
5.38254
7.27659
3.7416
4.62027
1.66157
1.9547
1.75879
7.28173
5.38208
4.61966
3.75467
1.05839
1.658
1.28842
4.96538
2.5238
3.60528
2.44695
0.677623
1.13495
0.882689
2.21613
1.24572
2.30055
1.44362
1.19327
0.860444
1.05485
1.44883
1.96251
1.22533
1.55726
1.68339
1.16322
1.38421
2.26932
3.03611
1.75306
2.21375
1.93867
1.45453
1.56252
3.32196
3.82293
2.34944
2.54065
1.7734
1.56071
1.45187
3.81764
3.32415
2.54029
2.34641
1.34217
1.38968
1.16835
3.06538
2.28942
2.21397
1.76423
0.949296
1.05771
0.860806
1.9726
1.44165
1.56989
1.2206
1.03275
0.700363
0.856547
1.16432
1.43919
0.9186
1.14378
1.33574
0.926236
1.07868
1.60958
1.98328
1.24714
1.45807
1.47998
1.11342
1.16938
2.08715
2.2401
1.51489
1.59958
1.39223
1.16936
1.11303
2.24
2.08594
1.59958
1.5149
1.13648
1.07864
0.926935
1.98399
1.61585
1.45815
1.24758
0.853948
0.856442
0.701429
1.4448
1.16571
1.14306
0.917042
0.834589
0.59455
0.72189
0.872828
1.06913
0.689517
0.822566
1.03425
0.814245
0.894734
1.15087
1.33825
0.943644
1.03125
1.11727
0.944643
0.973448
1.38526
1.45837
1.09703
1.12919
1.065
0.973469
0.944778
1.45838
1.38533
1.12921
1.09713
0.893816
0.894862
0.814999
1.33838
1.15124
1.03136
0.943876
0.682126
0.721328
0.594425
1.06902
0.874422
0.822645
0.690411
0.188906
-0.0368227
0.102103
-0.149875
0.0914376
-0.132464
0.0556874
0.0860116
-0.0770229
-0.333786
-0.0931025
0.459006
-0.127435
0.187782
-2.36539
-1.00089
-3.47787
0.510278
1.04749
-0.136586
0.975912
-0.386502
-2.6887
-1.17691
1.03189
0.434516
1.07354
-0.0301408
-0.0691096
-0.415281
-0.119162
0.457796
-0.0373552
0.23248
-0.114025
-0.123982
0.0669481
-0.0489035
0.107484
-0.150601
0.0721453
-0.132488
0.104627
0.0461168
0.198926
-0.131341
0.0497426
-0.0984433
0.060684
-0.541322
0.0763979
0.221932
-0.145835
0.138531
-0.142147
0.140021
-2.36723
-0.055074
-0.200245
-0.207582
1.14078
-0.261595
0.830118
-1.14036
-0.1368
-0.0674631
1.19866
-0.105103
0.914087
-0.23141
-0.096926
0.187015
0.0818144
0.196524
-0.129792
0.167828
-0.132133
-0.0214182
0.180309
0.0454519
0.0623048
-0.129692
0.0679802
-0.100674
0.239828
0.103932
0.320048
-0.0822187
0.0716447
-0.0355215
0.121106
0.420391
0.291935
0.803126
-0.120787
0.181198
-0.0319217
0.291351
0.446784
0.775761
1.48451
-0.201367
0.746347
0.011838
0.863782
0.266932
1.52599
0.866056
0.819671
-0.193658
0.925335
-0.0170181
0.149828
0.789353
0.275219
0.199514
-0.11605
0.294488
-0.0434768
0.0804265
0.308431
0.0879914
0.0796292
-0.0843662
0.119196
-0.0463063
0.324705
0.0753474
0.314873
-0.0165778
0.131414
0.0384876
0.195405
0.78136
0.300468
0.75807
-0.00797408
0.264808
0.099059
0.16297
1.47996
0.67365
1.13473
0.0228463
0.807345
0.00105464
0.19841
0.805943
1.14355
0.622644
0.867297
-0.0174406
0.25667
-0.0724439
0.289169
0.732342
0.269026
0.271132
-0.022831
0.177974
0.0755091
0.0923207
0.291534
0.0506481
0.12831
-0.0274352
0.183354
0.0226013
0.304369
0.00103698
0.208361
0.0702564
0.251724
0.139317
0.463797
0.750202
0.219744
0.746825
0.181954
0.204252
0.509427
1.31702
1.11975
0.951962
7.97117
0.0999101
-0.0473428
2.03373
-4.60437
0.544829
7.19557
0.831852
6.39506e-05
0.0136369
-4.40174
1.85415
0.259181
0.64101
0.165595
0.219988
0.152819
1.25591
0.44892
0.0579277
0.165346
-0.0210571
0.233739
0.0522263
0.41444
0.113429
0.125866
-0.0636601
0.147988
0.162317
0.619075
0.101296
0.567188
0.184377
0.1416
-0.134538
0.658551
1.5646
0.615897
1.24805
6.71853
-0.316592
-1.46942
1.84432
-9.1664
1.40251
8.44434
0.134649
-1.53471
-0.38104
-9.58561
1.7706
8.54758
1.41788
0.0871673
-0.193787
0.110937
1.4941
0.603752
1.23322
0.583351
-0.0268626
0.121731
-0.0804281
0.569545
0.136956
0.533107
0.0833614
0.157562
-0.194097
0.231101
0.101562
0.559686
-0.0510946
0.72897
-0.0752757
0.298646
1.36166
0.609093
1.13388
0.866336
2.10508
-0.914928
1.65432
7.49662
1.24806
8.93102
2.1074
5.52812
-0.308172
7.52736
1.66979
9.01017
1.27543
5.70377
2.0677
0.13188
1.36709
0.286951
1.11986
0.57894
2.00912
0.836
-0.0733978
0.217949
-0.202391
0.527874
0.0860365
0.700743
-0.0624648
0.214866
-0.780332
-0.546167
-0.0854949
0.762432
-0.667186
0.272851
1.34275
-0.451039
-0.0961568
0.924265
2.6435
0.543346
5.64886
6.27013
-0.116048
-1.97274
2.71113
6.16889
6.30316
33.1405
1.62441
-1.95214
-0.153649
6.32505
2.64444
35.3024
6.172
0.273374
-0.12169
-0.471322
2.53591
0.892478
5.51899
0.501223
-0.244223
-0.562376
-0.787052
0.733142
-0.0969233
0.233675
-0.681574
-0.765423
-2.15271
-3.42468
-0.976876
0.0216516
-2.4789
-4.01003
-0.140648
-3.54704
-3.60823
0.290272
5.6036
-4.15064
0.526712
-1.46261
-3.44485
0.581745
6.26939
34.6071
1.90437
59.4178
-0.224947
0.582827
-3.47083
36.3586
6.14248
60.402
1.85991
-0.678952
-3.6339
-3.56509
5.47609
0.247471
0.469358
-4.18742
-1.0634
-3.44098
-2.15847
-0.018106
-0.992016
-4.04625
-2.49535
-3.9784
-3.08383
-6.57649
-3.18191
-4.97433
-4.02505
-10.765
-4.31552
-7.42371
-15.7713
-5.28441
-0.836147
-12.7035
-57.1078
-0.85788
-16.6591
-27.0497
0.554053
64.0103
-63.7086
-2.5998
-4.21594
-27.0601
-16.7529
64.8098
0.511683
0.0418973
-63.9872
-4.18504
-15.8581
-7.45427
-0.893691
-5.32169
-57.3844
-12.7477
-2.66155
-6.5995
-3.08416
-5.01038
-3.19815
-10.8022
-4.03917
-6.43717
-1.08415
-1.63173
-3.98226
-10.6632
-1.31807
-1.864
-15.7626
-1.65425
0.476265
-12.6169
-59.4183
-1.72651
13.7822
-27.6622
0.773153
6.47162
-66.8148
-583.69
17.5297
199.438
-16.8023
6.46972
0.82801
-580.656
-67.1298
199.497
17.5978
-7.18021
0.592146
-1.62007
-59.7144
-12.6593
13.8376
-1.73008
-3.02952
-1.62742
-1.0767
-10.6992
-3.99564
-1.87119
-1.32402
-0.816898
1.11779
2.36317
-0.423065
-0.490985
1.49771
3.83891
1.52916
2.70838
6.02594
-0.0935772
16.2444
4.52636
12.7381
7.79604
6.60774
9.55301
20.0004
168.166
14.4432
23.8656
1.93711
9.56685
6.60312
168.211
20.0671
23.8662
14.4763
-0.734882
6.08651
2.71753
16.3013
-0.0906702
12.7719
4.53679
-0.427917
2.37134
1.10572
-0.492612
-0.428709
3.84705
1.49174
2.56724
1.60789
2.42901
1.83757
3.90554
1.91173
3.22277
5.8143
2.5789
3.84237
4.53263
11.4607
3.45167
5.62022
8.68554
4.00992
4.96685
12.807
19.8607
5.87677
7.18105
6.30216
4.96702
4.02324
19.8617
12.8365
7.18134
5.88121
2.84396
3.86025
2.56444
11.4911
4.54165
5.62557
3.45618
1.4175
2.41896
1.59726
3.9129
1.83698
3.22712
1.91033
2.2656
1.31898
1.74591
1.8827
2.78596
1.48546
2.01715
3.60273
1.95415
2.46891
3.28235
4.70359
2.28304
2.90695
4.5703
2.61348
2.84704
5.16771
5.97042
3.0925
3.38946
3.96571
2.8472
2.61592
5.97051
5.16776
3.38945
3.09246
2.62796
2.46981
1.95458
4.70163
3.27908
2.90676
2.28266
1.59973
1.74702
1.3147
2.78288
1.88138
2.01708
1.4858
1.58577
0.975611
1.22741
1.40139
1.81406
1.06045
1.34465
2.18085
1.3324
1.56492
2.03012
2.51889
1.46475
1.73229
2.47554
1.62623
1.72038
2.6604
2.88339
1.80321
1.91252
2.2969
1.7204
1.62642
2.88339
2.66042
1.91253
1.8033
1.77223
1.56505
1.33274
2.51885
2.03003
1.73238
1.46488
1.2558
1.22641
0.977604
1.81416
1.40169
1.34473
1.06057
1.13615
0.75093
0.911428
0.995223
1.23606
0.788573
0.951916
1.42441
1.03872
1.14456
1.332
1.5625
1.08956
1.19967
1.55483
1.21561
1.25405
1.61994
1.71132
1.27643
1.31691
1.47486
1.25407
1.21568
1.71133
1.62003
1.31693
1.27651
1.22096
1.14465
1.03886
1.5626
1.33212
1.19978
1.0897
0.920033
0.911457
0.750994
1.23615
0.995236
0.952042
0.788709
0.108076
-0.081929
0.0834655
-0.0339258
0.0694816
-0.105702
-0.0124057
0.423199
-0.0878346
0.254306
-0.0349564
-0.087159
-0.153376
-0.0826846
0.638816
0.01398
0.781354
-0.0602002
-0.75802
-0.245955
0.135973
0.453706
0.821097
0.0376014
-0.705478
-0.12722
-0.474903
-0.279923
-0.0562915
0.231676
-0.0983705
-0.148211
-0.0433826
-0.0788396
-0.162777
-0.113963
0.0673815
-0.0865519
0.0624807
-0.0484665
-0.013336
-0.113491
0.0732587
-0.0621697
0.0812261
-0.122678
-0.0212655
-0.122476
-0.0210779
0.217495
-0.114598
0.232849
-0.167901
-0.0967244
-0.166859
-0.0919006
0.931224
-0.153325
1.13758
-0.255558
-0.51676
-0.314807
-1.46818
-0.0255578
1.19904
-0.164076
0.11583
-0.213202
-1.45981
-0.284645
-0.114147
0.226663
-0.119264
-0.130226
-0.181897
-0.0659732
-0.161048
-0.0860032
0.0778948
-0.062052
-0.0247344
-0.128439
-0.0191045
-0.125696
0.0933024
-0.00842513
0.156394
-0.12601
-0.0150047
-0.0784475
0.0205143
0.266032
-0.030473
0.423353
-0.152791
-0.0821258
-0.149236
0.0236508
1.31747
-0.0378498
1.70541
-0.203732
-0.127208
-0.221454
-0.540945
-0.157576
1.78602
-0.0845299
-0.108019
-0.216143
-0.517862
-0.233754
-0.108779
0.423225
-0.0452749
-0.0326076
-0.145006
0.0262715
-0.151999
-0.0538566
0.15138
-0.0131945
-0.00490365
-0.129283
0.0165123
-0.0845891
0.180765
0.0761749
0.287274
-0.065326
0.0291175
0.0447345
0.149965
0.445062
0.169797
0.489868
-0.134641
-0.118182
0.0269336
0.0843015
1.77728
-0.116309
1.61307
-0.414277
-1.27329
-0.0768459
0.74763
-0.0932485
1.58834
-0.1854
-1.25695
-0.425754
0.790547
-0.0874034
-0.015039
0.473176
0.144387
-0.109976
-0.134829
0.0966928
0.0283733
0.00144446
0.269854
0.0635437
0.0324924
-0.0711491
0.154235
0.0378729
0.341121
0.182568
0.565213
0.103292
0.250808
0.257649
0.723615
0.523673
0.597726
0.203787
0.174148
0.410923
0.845174
0.838914
1.24705
-1.21462
1.25204
0.235003
1.52969
-0.098853
-0.264889
-0.17896
1.25116
-0.812431
1.56034
0.20836
-0.228256
-0.0970346
0.226363
0.302639
0.57131
0.424704
0.164458
0.80965
0.792772
0.0942151
0.538055
0.161919
0.247276
0.0920351
0.688439
0.24028
0.600029
0.139492
0.586902
0.301133
0.804175
0.204191
0.629074
1.11933
0.626958
1.44482
0.897399
1.46585
0.668178
1.02344
-3.8074
1.67987
7.57542
1.69856
7.31242
1.00869
0.949139
1.08827
7.96283
1.65011
7.25025
1.61803
0.950858
0.956228
0.565331
1.42184
0.598885
1.3763
0.858912
1.00419
0.632285
0.187408
0.556633
0.122264
0.764353
0.282635
0.610591
0.19057
0.579845
-0.028089
0.702536
0.18523
0.604909
-0.0102087
0.521746
1.38749
0.823985
1.87368
0.645743
0.957785
0.610128
1.29147
8.44531
2.09435
10.2967
0.934674
0.774974
1.40699
1.70823
1.59952
10.0985
2.19728
0.779397
0.885444
1.66872
1.30774
0.597446
1.90321
0.802714
0.939047
0.612129
1.30565
0.584483
0.121138
0.679314
-0.0407478
0.576124
0.173239
0.498943
-0.0233457
0.738824
-0.637797
0.334246
-0.0568624
0.514675
-0.551429
-0.043599
2.2088
0.612261
5.70017
0.616573
1.43963
0.114002
1.97891
10.1294
6.33806
26.9228
1.63563
2.33372
2.18666
4.97275
2.52487
28.6655
6.20785
2.28419
1.59801
4.97307
2.08355
0.858693
5.57676
0.568145
1.50381
0.588566
1.88116
0.0769016
-0.0754226
0.293878
-0.652992
0.490008
-0.069637
-0.0663217
-0.564255
0.0865658
-2.43914
-3.89396
-0.795948
-0.257027
-1.78535
-2.70946
5.66926
-4.01513
0.563989
-0.111108
1.85856
-2.78346
-2.92281
28.7445
1.84823
56.8273
2.07091
4.74058
-2.83612
-1.10293
6.1945
57.8801
1.71429
4.76557
1.95867
-1.11576
-2.84226
0.319001
0.430208
-4.06011
1.76098
-0.144857
-2.995
-2.81397
-0.959984
-3.93357
-2.45432
-0.282043
-0.811852
-2.74458
-1.80583
-4.83693
-3.95203
-10.4176
-2.23053
-3.18136
-2.60304
-5.3512
-0.736104
-12.2847
-56.0755
-3.31292
-3.44488
-5.81851
-11.2269
60.8123
-62.5941
-308.988
-3.38765
-1.73775
-11.7661
-17.5142
0.437355
-306.914
-62.8768
-1.75158
-3.41719
-17.5194
-11.8362
-5.1663
-56.3944
-12.3455
-3.50041
-3.34348
-11.3023
-5.84963
-3.14047
-10.4687
-3.96094
-3.21833
-2.24703
-5.37158
-2.61358
-10.3466
-1.27632
-1.82765
-2.56028
-5.17031
-0.867423
-1.31786
-58.2567
-1.69025
13.5664
-5.672
-11.2423
-1.23632
0.303367
17.2654
211.298
-11.7848
-17.7096
0.447548
3.58061
-65.8034
211.364
17.3323
-17.7123
-11.835
3.59316
0.455857
-12.2851
13.6196
-1.70096
-11.2839
-5.7008
0.308483
-1.24117
-3.9165
-1.83877
-1.28704
-5.18845
-2.56552
-1.27643
-0.875488
-0.476753
1.48846
3.81425
-0.290508
-0.648657
1.06001
2.17312
15.9633
4.49545
12.4609
-0.496123
1.10936
2.45915
5.28948
171.233
14.1193
23.3419
1.23442
4.61096
5.65356
7.85018
19.7305
23.3437
14.1244
4.62362
1.24139
7.85269
5.67086
-0.0897332
12.4632
4.49191
1.11273
-0.501058
5.30682
2.46067
-0.403893
3.81107
1.48878
-0.645401
-0.293323
2.17284
1.06208
3.88158
1.89534
3.21204
1.34114
2.30941
1.54788
2.2755
11.2574
3.43997
5.58878
2.59857
5.18437
2.40908
3.64892
19.4855
5.84357
7.13539
5.48819
7.28756
3.8753
4.53522
12.5849
7.13566
5.84794
7.29018
5.49885
4.53562
3.84902
4.50132
5.59413
3.44583
5.18648
2.5949
3.63806
2.41034
1.8242
3.21767
1.89785
2.31362
1.34045
2.27681
1.55332
2.75282
1.47739
2.00222
1.52021
2.13979
1.26591
1.69012
4.64397
2.26597
2.884
2.47667
3.41541
1.89794
2.36559
5.89037
3.06789
3.36231
3.76459
4.23583
2.50177
2.71265
5.10322
3.36247
3.06919
4.23651
3.75975
2.71252
2.50238
3.24621
2.88552
2.26774