/*--------------------------------*- C++ -*----------------------------------*\
| =========                 |                                                 |
| \\      /  F ield         | OpenFOAM: The Open Source CFD Toolbox           |
|  \\    /   O peration     | Version:  2206                                  |
|   \\  /    A nd           | Website:  www.openfoam.com                      |
|    \\/     M anipulation  |                                                 |
\*---------------------------------------------------------------------------*/
FoamFile
{
    version     2.0;
    format      ascii;
    arch        "LSB;label=32;scalar=64";
    class       volScalarField;
    location    "200";
    object      k;
}
// * * * * * * * * * * * * * * * * * * * * * * * * * * * * * * * * * * * * * //

dimensions      [0 2 -2 0 0 0 0];

internalField   nonuniform List<scalar> 
198968
(
0.338191
0.309326
0.309357
0.309396
0.309398
0.309355
0.309322
0.338624
0.363471
0.368204
0.370121
0.369959
0.369662
0.370184
0.369332
0.363961
0.427148
0.376116
0.378749
0.378589
0.378343
0.378829
0.377995
0.374106
0.427544
0.391323
0.394423
0.394275
0.394008
0.394552
0.393516
0.389133
0.436299
0.406402
0.410906
0.411053
0.41086
0.411331
0.409475
0.403604
0.45348
0.41958
0.424353
0.425475
0.426249
0.425005
0.423092
0.416799
0.470936
0.43304
0.439107
0.44093
0.442233
0.440002
0.43795
0.429707
0.489645
0.449474
0.453685
0.457418
0.458815
0.455622
0.453876
0.445225
0.511393
0.469419
0.469973
0.475082
0.475622
0.47325
0.471347
0.465671
0.532588
0.495841
0.494171
0.496792
0.496914
0.496592
0.496186
0.492294
0.553792
0.525536
0.524934
0.527192
0.527249
0.527117
0.526885
0.521837
0.578628
0.55969
0.560383
0.562859
0.562889
0.562843
0.562492
0.556122
0.614644
0.601443
0.601827
0.604469
0.604494
0.604452
0.604375
0.596925
0.673861
0.655223
0.655586
0.655139
0.655144
0.655137
0.655168
0.645999
0.744091
0.721724
0.722031
0.722112
0.722146
0.722087
0.722129
0.710949
0.829511
0.802551
0.802793
0.802825
0.80283
0.802818
0.802804
0.789129
0.925091
0.902616
0.902754
0.90277
0.902773
0.902765
0.902751
0.88488
1.05758
1.02973
1.02978
1.02978
1.02978
1.02978
1.02979
1.00664
1.22887
1.19652
1.1964
1.19635
1.19634
1.19637
1.19646
1.1681
1.49833
1.42347
1.42329
1.42311
1.42308
1.42319
1.42339
1.49833
0.386312
0.293402
0.29444
0.294892
0.294938
0.294766
0.293989
0.290621
0.398464
0.308107
0.309075
0.309541
0.309569
0.309399
0.308675
0.305105
0.409718
0.32137
0.322157
0.322563
0.322531
0.322445
0.321854
0.318356
0.421022
0.336099
0.336564
0.337019
0.33694
0.336903
0.336324
0.333132
0.433485
0.352882
0.352936
0.353148
0.353124
0.353048
0.352959
0.349832
0.445069
0.372305
0.372216
0.372233
0.372173
0.372207
0.372286
0.369899
0.458955
0.394123
0.393988
0.393971
0.393893
0.393979
0.394028
0.392796
0.475209
0.418409
0.418374
0.418305
0.418229
0.418348
0.418372
0.416867
0.493233
0.445675
0.445709
0.445654
0.445615
0.445678
0.445702
0.445371
0.516358
0.476398
0.476469
0.476551
0.476549
0.47649
0.476456
0.475852
0.542059
0.511786
0.511572
0.511619
0.511599
0.511589
0.511718
0.511246
0.569843
0.552539
0.552246
0.552152
0.552148
0.55218
0.552443
0.552444
0.604273
0.599624
0.59953
0.599463
0.599432
0.59946
0.599595
0.599413
0.655855
0.655292
0.655292
0.655386
0.655376
0.655401
0.655279
0.655039
0.722328
0.72217
0.722929
0.723222
0.723257
0.723238
0.722904
0.722064
0.803277
0.803461
0.804151
0.80433
0.804328
0.804272
0.804046
0.803256
0.904149
0.904049
0.904509
0.904597
0.904595
0.904643
0.904298
0.903486
1.03214
1.03232
1.03272
1.03243
1.03223
1.03263
1.03264
1.03152
1.20039
1.20032
1.20021
1.19997
1.19983
1.20007
1.20032
1.20014
1.42759
1.4269
1.42616
1.42582
1.42568
1.42593
1.42658
1.42717
0.45555
0.421048
0.427084
0.427714
0.427646
0.427473
0.426341
0.37216
0.4683
0.436371
0.443115
0.444108
0.444109
0.443781
0.442086
0.383622
0.477318
0.449406
0.456046
0.457183
0.457322
0.456821
0.454953
0.393323
0.486103
0.451856
0.451553
0.451274
0.450476
0.451534
0.451507
0.401551
0.493276
0.451686
0.450949
0.450487
0.44962
0.450787
0.450961
0.407829
0.501375
0.450708
0.449935
0.44939
0.448267
0.449701
0.450054
0.412564
0.5151
0.447961
0.447546
0.447003
0.445568
0.447327
0.447733
0.418204
0.531372
0.443641
0.443225
0.442493
0.440893
0.442868
0.44347
0.432783
0.684756
0.448268
0.44642
0.445342
0.44435
0.445733
0.446853
0.443439
0.686333
0.472171
0.469158
0.467919
0.467455
0.468369
0.469874
0.472133
0.668857
0.506862
0.504379
0.503182
0.502715
0.503497
0.504932
0.506884
0.650303
0.547052
0.545619
0.544466
0.544868
0.54451
0.545777
0.546925
0.651769
0.593325
0.593135
0.592684
0.592331
0.592729
0.593207
0.593269
0.655947
0.647685
0.647394
0.647316
0.647098
0.647504
0.647438
0.647651
0.712754
0.712957
0.71411
0.715108
0.715024
0.715027
0.713746
0.712745
0.79121
0.792413
0.793465
0.794209
0.794385
0.794074
0.793233
0.791914
0.888588
0.890058
0.891681
0.893568
0.893716
0.893314
0.89126
0.889404
1.03259
1.01467
1.01622
1.01769
1.01799
1.01737
1.01582
1.03374
1.20097
1.17641
1.17679
1.17764
1.17793
1.1774
1.17664
1.2013
1.4264
1.42588
1.42603
1.42625
1.42633
1.42613
1.42589
1.4261
0.456389
0.427499
0.492747
0.49438
0.494086
0.493567
0.489983
0.371695
0.469503
0.44462
0.527066
0.530626
0.530285
0.529639
0.522876
0.383295
0.48012
0.459422
0.55905
0.565771
0.56533
0.564569
0.552854
0.392961
0.489089
0.450697
0.579319
0.597488
0.597069
0.59679
0.57828
0.401381
0.496121
0.451103
0.604056
0.637815
0.637039
0.636944
0.602322
0.407881
0.505924
0.450782
0.63072
0.683496
0.682408
0.682467
0.628328
0.41261
0.515481
0.447611
0.660192
0.736486
0.734938
0.73533
0.657057
0.417903
0.538386
0.442204
0.692251
0.798243
0.796172
0.796785
0.688163
0.432461
0.699472
0.445602
0.715825
0.864588
0.860031
0.864231
0.717409
0.442991
0.672261
0.469485
0.714707
0.918388
0.913199
0.917284
0.715867
0.472097
0.6486
0.504664
0.711249
0.977566
0.97054
0.976925
0.712658
0.506936
0.649626
0.545921
0.664101
1.00933
0.998226
1.00937
0.665109
0.546785
0.651863
0.593228
0.604528
0.979227
0.969201
0.978396
0.60511
0.593251
0.655911
0.647584
0.643702
0.762849
0.752828
0.762501
0.643633
0.647504
0.712762
0.713204
0.709376
0.709198
0.709854
0.709234
0.709214
0.712968
0.791234
0.792837
0.789181
0.791595
0.792824
0.791457
0.788825
0.792136
0.888324
0.890732
0.893086
0.895014
0.896441
0.894478
0.892612
0.889676
1.03088
1.01407
1.01638
1.01908
1.01975
1.01849
1.01578
1.03242
1.20002
1.17615
1.17809
1.17854
1.17862
1.17848
1.17787
1.2008
1.42606
1.42614
1.42646
1.42656
1.42659
1.42652
1.42635
1.42609
0.457105
0.426544
0.492123
0.493149
0.493124
0.493004
0.489401
0.371468
0.469324
0.443876
0.526415
0.529391
0.529372
0.529148
0.52228
0.383105
0.480196
0.458912
0.558507
0.564714
0.564667
0.564365
0.552295
0.392571
0.489079
0.450705
0.578511
0.596764
0.596473
0.596591
0.577521
0.400978
0.496224
0.450716
0.603253
0.636751
0.636347
0.63659
0.601503
0.407369
0.506514
0.450267
0.630072
0.682038
0.681552
0.68188
0.627466
0.412
0.515759
0.447017
0.659803
0.734631
0.733821
0.734617
0.656147
0.417405
0.539443
0.441543
0.692208
0.795944
0.794752
0.796117
0.687096
0.431946
0.702447
0.444623
0.714612
0.86181
0.86095
0.861921
0.715971
0.442597
0.674179
0.468732
0.713258
0.917832
0.992056
0.917046
0.714964
0.472018
0.647751
0.504601
0.708133
0.984017
1.26022
0.979313
0.711089
0.50691
0.652023
0.545747
0.658804
1.02331
3.56555
1.01775
0.664216
0.546857
0.653055
0.593158
0.600671
1.01771
15.5166
1.00657
0.604585
0.59324
0.656
0.647499
0.643551
0.788306
0.781775
0.643553
0.647477
0.712804
0.713982
0.710756
0.712184
0.731257
0.711822
0.710618
0.713558
0.791202
0.792613
0.790221
0.79225
0.794166
0.791777
0.789965
0.792089
0.88817
0.890669
0.893054
0.895969
0.897123
0.895187
0.892583
0.88967
1.03038
1.01372
1.01668
1.01939
1.01999
1.01888
1.0158
1.03217
1.19992
1.17591
1.1784
1.1787
1.17877
1.17866
1.17817
1.20074
1.4261
1.42621
1.4265
1.42661
1.42664
1.42657
1.42641
1.42615
0.422105
0.427948
0.491288
0.492318
0.491884
0.491994
0.488998
0.372173
0.45232
0.445029
0.524511
0.526346
0.525804
0.526073
0.521512
0.383754
0.477957
0.459556
0.555
0.558167
0.557526
0.557869
0.551157
0.393179
0.489147
0.450575
0.580158
0.59065
0.590334
0.5907
0.58059
0.401258
0.496766
0.450632
0.604681
0.624773
0.624559
0.624665
0.604334
0.40759
0.505279
0.450524
0.630566
0.663047
0.662989
0.662826
0.630332
0.412131
0.516377
0.447278
0.65865
0.707151
0.707278
0.70689
0.658744
0.416982
0.53491
0.442047
0.689902
0.758181
0.758561
0.757762
0.689554
0.432097
0.696337
0.44606
0.715485
0.866912
0.863738
0.866572
0.71765
0.443108
0.673629
0.469719
0.71423
0.914968
0.912715
0.914298
0.716604
0.472079
0.65528
0.505118
0.710508
0.975787
0.972629
0.975611
0.713234
0.506951
0.64844
0.545986
0.662789
1.00888
0.999374
1.00776
0.665535
0.546828
0.651374
0.593211
0.604144
0.980876
0.968514
0.978703
0.605308
0.593296
0.655898
0.647576
0.643906
0.763041
0.75063
0.760218
0.643854
0.647564
0.712742
0.713037
0.709254
0.709115
0.70979
0.709143
0.709202
0.712861
0.791302
0.79273
0.788963
0.791431
0.792006
0.79132
0.788787
0.792173
0.888611
0.890597
0.89307
0.894573
0.895828
0.894228
0.892582
0.889764
1.03196
1.01425
1.01641
1.0187
1.01951
1.01811
1.01589
1.03324
1.20044
1.17608
1.17796
1.17842
1.17856
1.17835
1.17763
1.20104
1.42605
1.42598
1.42628
1.42647
1.42649
1.42641
1.42613
1.42595
0.395739
0.368642
0.368998
0.368801
0.368595
0.369058
0.368634
0.355787
0.40749
0.379719
0.3802
0.380015
0.379744
0.380314
0.379481
0.363052
0.416806
0.386825
0.387615
0.387325
0.386935
0.387723
0.386555
0.366221
0.425599
0.390643
0.392254
0.392012
0.391454
0.392569
0.390771
0.368139
0.438103
0.393149
0.394617
0.394429
0.393939
0.395072
0.393405
0.370503
0.451584
0.396915
0.398297
0.398313
0.39781
0.398964
0.39743
0.377552
0.469335
0.406096
0.407117
0.407125
0.406742
0.407629
0.406429
0.391158
0.486968
0.422347
0.422787
0.422689
0.422448
0.423022
0.422418
0.411698
0.506725
0.442774
0.442764
0.442357
0.442086
0.442549
0.442717
0.442397
0.527185
0.47229
0.471784
0.471174
0.470989
0.471305
0.471751
0.471878
0.546192
0.506926
0.506489
0.506098
0.505976
0.505992
0.506439
0.506837
0.57616
0.546785
0.546493
0.546055
0.545904
0.545975
0.54654
0.546994
0.610166
0.593244
0.593096
0.592828
0.592563
0.592866
0.593129
0.593319
0.654367
0.647467
0.647269
0.647314
0.647117
0.647428
0.647286
0.647591
0.72185
0.712802
0.714089
0.714699
0.714601
0.714736
0.71369
0.71277
0.802802
0.792181
0.793082
0.793622
0.793617
0.793656
0.792808
0.791839
0.903441
0.889728
0.890799
0.891911
0.891946
0.891995
0.890283
0.904387
1.03235
1.03329
1.0344
1.0348
1.03501
1.03469
1.03387
1.03295
1.20116
1.20125
1.20138
1.20163
1.20165
1.20151
1.20132
1.20129
1.42725
1.42633
1.426
1.42603
1.42605
1.42598
1.42612
1.42669
0.338868
0.309252
0.309326
0.309383
0.309384
0.309344
0.309317
0.338177
0.363118
0.288152
0.287048
0.287356
0.287598
0.287041
0.287741
0.363459
0.401649
0.305627
0.304512
0.304827
0.30508
0.304515
0.305188
0.291396
0.406923
0.320795
0.319507
0.319867
0.320155
0.319526
0.320243
0.315343
0.41431
0.337362
0.335777
0.336126
0.336394
0.335796
0.336567
0.331636
0.428428
0.357792
0.355693
0.355368
0.354803
0.355675
0.356906
0.352194
0.449013
0.382287
0.379619
0.379124
0.378165
0.379714
0.381127
0.378291
0.47184
0.410624
0.408345
0.406622
0.405378
0.407947
0.409223
0.40814
0.498711
0.443039
0.442233
0.438827
0.438036
0.440794
0.442318
0.440262
0.523295
0.475154
0.476869
0.476142
0.476069
0.476199
0.476611
0.47026
0.550021
0.510218
0.511965
0.511934
0.511916
0.511945
0.511677
0.504781
0.580993
0.552446
0.55252
0.552543
0.55255
0.552525
0.552656
0.545414
0.617358
0.599337
0.59969
0.599673
0.599677
0.599674
0.599771
0.591156
0.662874
0.655037
0.655443
0.655496
0.655516
0.655465
0.655487
0.646018
0.732031
0.721834
0.722395
0.722662
0.722763
0.722545
0.722261
0.710345
0.815235
0.802943
0.803494
0.803603
0.803616
0.803571
0.803392
0.788549
0.919396
0.903354
0.903618
0.903666
0.903674
0.903652
0.903604
0.885178
1.05252
1.03098
1.03103
1.03101
1.031
1.03101
1.03108
1.00729
1.22756
1.1984
1.19834
1.19832
1.19829
1.19834
1.19839
1.16929
1.49833
1.42586
1.42549
1.42539
1.42539
1.4254
1.42571
1.49833
0.451575
0.452084
0.451085
0.450554
0.580199
0.450618
0.597748
0.451699
0.451336
0.451061
0.580599
0.590883
0.598875
0.615956
0.450785
0.450905
0.450063
0.590594
0.590577
0.615574
0.615827
0.45118
0.450067
0.450515
0.590607
0.590559
0.61586
0.615688
0.451612
0.451203
0.451089
0.590848
0.58035
0.615986
0.598599
0.452153
0.451337
0.45202
0.579965
0.450631
0.597518
0.450694
0.451091
0.451228
0.450264
0.450679
0.603931
0.450631
0.622951
0.451027
0.450441
0.450085
0.605255
0.624918
0.624551
0.653009
0.449993
0.449921
0.448911
0.624502
0.62486
0.652479
0.653171
0.450474
0.448922
0.449506
0.624893
0.62467
0.653203
0.652789
0.451081
0.450228
0.450181
0.624969
0.604966
0.653119
0.624195
0.452003
0.450523
0.451135
0.603693
0.450755
0.622654
0.450708
0.450189
0.44923
0.448527
0.450584
0.629843
0.448658
0.651028
0.449956
0.448622
0.448273
0.631258
0.663108
0.651842
0.69548
0.448653
0.448097
0.446758
0.662529
0.663321
0.694777
0.695848
0.449362
0.446761
0.447638
0.663352
0.662877
0.695879
0.695191
0.45007
0.448411
0.448352
0.663231
0.630869
0.695616
0.651323
0.451012
0.448797
0.449094
0.629511
0.450663
0.650571
0.448724
0.447886
0.444811
0.444446
0.447437
0.658561
0.443351
0.681398
0.447617
0.444479
0.444063
0.659531
0.707226
0.682635
0.744661
0.445998
0.443806
0.442222
0.706437
0.707645
0.74373
0.745235
0.446958
0.442179
0.443343
0.707676
0.706858
0.745273
0.744187
0.447699
0.444171
0.444234
0.707361
0.658971
0.744822
0.68196
0.448252
0.4447
0.444686
0.658066
0.447494
0.680823
0.443388
0.443609
0.445494
0.44431
0.442287
0.689661
0.443251
0.71378
0.443156
0.444084
0.443473
0.690973
0.758172
0.715964
0.800982
0.441322
0.443105
0.441994
0.757281
0.758957
0.800307
0.80224
0.442433
0.441909
0.442817
0.758995
0.75776
0.802281
0.800844
0.443378
0.443494
0.443967
0.758343
0.690266
0.801193
0.715159
0.443898
0.44446
0.445467
0.689071
0.442282
0.713203
0.443329
0.446882
0.464745
0.462332
0.446004
0.717874
0.461985
0.716462
0.445889
0.461798
0.461066
0.716241
0.867556
0.714754
0.907493
0.444578
0.460566
0.460091
0.866781
0.863684
0.907368
0.905462
0.445268
0.460036
0.460474
0.863735
0.866525
0.905491
0.907181
0.446493
0.461032
0.461801
0.867584
0.715571
0.907561
0.71404
0.448398
0.462403
0.464756
0.717269
0.446095
0.715812
0.462143
0.469802
0.49765
0.495531
0.469442
0.7167
0.495418
0.714979
0.468403
0.495069
0.494233
0.715009
0.914912
0.712722
0.967562
0.467495
0.493806
0.493338
0.914798
0.912809
0.967643
0.964812
0.467844
0.493302
0.493742
0.912873
0.914572
0.964888
0.967267
0.469172
0.494197
0.495096
0.914958
0.714362
0.967495
0.712173
0.472188
0.495617
0.497662
0.716099
0.469605
0.714197
0.495642
0.504833
0.536464
0.535092
0.504889
0.713357
0.53532
0.673939
0.503518
0.53456
0.533511
0.711017
0.975639
0.671418
1.00778
0.502734
0.533482
0.534074
0.975629
0.972617
1.00824
0.998935
0.503091
0.534032
0.533453
0.972697
0.97528
0.999038
1.00896
0.504393
0.533505
0.53455
0.975541
0.710489
1.00866
0.670823
0.506871
0.534981
0.536397
0.712589
0.505098
0.673129
0.535363
0.545892
0.581073
0.580893
0.54602
0.665767
0.580804
0.608282
0.5445
0.580799
0.580291
0.663499
1.00783
0.606991
0.985599
0.544899
0.580158
0.579635
1.00828
0.998946
0.988339
0.975127
0.544442
0.579681
0.579961
0.999047
1.00897
0.975403
0.989055
0.545591
0.580242
0.580791
1.00869
0.662889
0.986556
0.606967
0.546923
0.580863
0.581043
0.664906
0.546006
0.607893
0.580784
0.593208
0.633201
0.633005
0.593221
0.605424
0.633086
0.636382
0.592776
0.632957
0.632794
0.604431
0.978956
0.636335
0.778705
0.592231
0.632686
0.632522
0.981134
0.96797
0.780707
0.767607
0.592546
0.632498
0.632725
0.968218
0.982025
0.76792
0.781098
0.593136
0.632804
0.632956
0.979808
0.604178
0.778957
0.63634
0.59332
0.633004
0.633201
0.605005
0.593216
0.636388
0.633084
0.647439
0.695567
0.695857
0.647585
0.643852
0.695681
0.700373
0.647431
0.696122
0.696945
0.643902
0.761471
0.700393
0.704647
0.647172
0.697008
0.696875
0.763401
0.750743
0.704738
0.705474
0.64753
0.69684
0.696996
0.750995
0.763779
0.705464
0.704734
0.647393
0.696941
0.696121
0.761685
0.643904
0.704647
0.700393
0.647684
0.695856
0.695565
0.643856
0.647582
0.700372
0.695679
0.713747
0.770926
0.772003
0.713046
0.709197
0.771316
0.778196
0.715028
0.772234
0.772749
0.709247
0.709061
0.778337
0.780456
0.715062
0.772841
0.773009
0.709113
0.709766
0.780582
0.781777
0.715104
0.773011
0.77284
0.709758
0.709111
0.781777
0.780582
0.71411
0.772747
0.772232
0.709062
0.709247
0.780456
0.778291
0.712957
0.772003
0.770935
0.709195
0.713045
0.778119
0.771313
0.793224
0.863535
0.864663
0.792753
0.788788
0.864018
0.872584
0.794075
0.865023
0.866356
0.78899
0.791311
0.872865
0.874192
0.794377
0.866645
0.866935
0.791439
0.792584
0.874343
0.875804
0.794208
0.866945
0.866644
0.792583
0.791438
0.875804
0.874343
0.793468
0.866356
0.865023
0.79131
0.788958
0.874192
0.872864
0.79242
0.864661
0.863535
0.788725
0.792741
0.872583
0.864014
0.89126
0.980547
0.981797
0.890615
0.892584
0.980386
0.982033
0.893314
0.982209
0.983381
0.893069
0.894319
0.98253
0.984097
0.893714
0.983639
0.983922
0.894798
0.895949
0.984865
0.98607
0.893567
0.98397
0.983638
0.895949
0.894798
0.98607
0.984865
0.89168
0.98338
0.98221
0.894319
0.893069
0.984096
0.98253
0.890057
0.981797
0.980547
0.892583
0.890614
0.982033
0.980386
1.01582
1.132
1.13241
1.01428
1.01589
1.13109
1.13278
1.01737
1.13253
1.13312
1.01641
1.01817
1.13334
1.13416
1.01796
1.13341
1.13374
1.01885
1.01959
1.13427
1.13444
1.01769
1.13374
1.13341
1.01959
1.01885
1.13444
1.13427
1.01622
1.13312
1.13253
1.01817
1.01641
1.13416
1.13334
1.01467
1.13241
1.132
1.01589
1.01428
1.13278
1.13109
1.17664
1.30555
1.30573
1.1761
1.17763
1.30579
1.30623
1.1774
1.30592
1.30625
1.17796
1.17834
1.30649
1.30663
1.17793
1.30645
1.30651
1.1784
1.17853
1.30677
1.30683
1.17763
1.30652
1.30645
1.17853
1.1784
1.30683
1.30677
1.17679
1.30625
1.30592
1.17834
1.17796
1.30663
1.30649
1.17641
1.30573
1.30555
1.17763
1.1761
1.30623
1.30579
0.578372
0.451382
0.596057
0.450789
0.577532
0.450824
0.595271
0.596989
0.597891
0.626684
0.578543
0.596616
0.596849
0.626105
0.597083
0.627355
0.626544
0.596846
0.596738
0.626332
0.62615
0.597575
0.626674
0.627312
0.596551
0.596764
0.625942
0.62625
0.579412
0.626524
0.597748
0.596606
0.57853
0.626107
0.596833
0.450826
0.596325
0.451145
0.577556
0.450736
0.595297
0.450762
0.602378
0.451272
0.621553
0.450881
0.601584
0.450573
0.620736
0.637313
0.624063
0.670944
0.603352
0.636632
0.623129
0.669947
0.637084
0.671637
0.670463
0.636861
0.636666
0.670184
0.669959
0.637951
0.670619
0.671588
0.63645
0.636779
0.669716
0.670097
0.604236
0.670649
0.623915
0.636636
0.603334
0.669955
0.623089
0.451239
0.621823
0.451025
0.601607
0.450817
0.62073
0.450508
0.62843
0.449268
0.649674
0.450438
0.627609
0.448491
0.648836
0.68301
0.652784
0.721957
0.630208
0.681921
0.652163
0.720619
0.682454
0.722596
0.720992
0.682154
0.681916
0.720753
0.720289
0.68365
0.721169
0.722533
0.681664
0.682065
0.720005
0.720659
0.630914
0.721488
0.652565
0.681929
0.630156
0.720629
0.652055
0.450927
0.649888
0.449028
0.627583
0.450374
0.648736
0.448427
0.657254
0.443853
0.680223
0.447219
0.656404
0.443014
0.679239
0.736081
0.684239
0.781304
0.660013
0.734669
0.683938
0.779784
0.734999
0.78205
0.77994
0.734768
0.734259
0.779746
0.779024
0.736662
0.780135
0.781987
0.733963
0.734672
0.778689
0.779645
0.660332
0.780689
0.683912
0.734679
0.659887
0.779795
0.68376
0.447808
0.680401
0.443656
0.65628
0.447154
0.679054
0.442954
0.688422
0.443057
0.712788
0.441744
0.687371
0.44216
0.711613
0.797713
0.717728
0.850275
0.692501
0.79619
0.718412
0.848701
0.796254
0.851156
0.848384
0.796107
0.795296
0.848526
0.848051
0.79846
0.848414
0.851258
0.794947
0.796005
0.847662
0.848419
0.692332
0.849342
0.717617
0.796201
0.692309
0.848718
0.718159
0.4424
0.712676
0.442964
0.687167
0.44169
0.711336
0.442145
0.717853
0.462027
0.71621
0.444684
0.715944
0.460839
0.71471
0.865159
0.71489
0.911189
0.714924
0.861914
0.71364
0.909615
0.860057
0.911455
0.906209
0.861752
0.861418
0.91014
0.968518
0.864523
0.906424
0.911199
0.861347
0.861798
0.968572
0.910192
0.715628
0.910394
0.71425
0.861974
0.71464
0.909648
0.713197
0.445677
0.716027
0.462016
0.715718
0.444685
0.714335
0.460878
0.716519
0.495179
0.715168
0.468686
0.714985
0.495137
0.712769
0.918462
0.713413
0.970712
0.713826
0.917101
0.710753
0.9712
0.913292
0.970178
0.963152
0.917834
0.991475
0.975102
1.1937
0.918552
0.963482
0.97006
0.991465
0.917894
1.19327
0.9752
0.71451
0.969456
0.712457
0.917132
0.713371
0.971244
0.710129
0.469481
0.714806
0.49519
0.714594
0.468729
0.71224
0.495182
0.713672
0.535168
0.674917
0.504547
0.711122
0.534848
0.672454
0.978731
0.672886
1.00953
0.708957
0.979432
0.668574
1.01714
0.970643
1.00976
0.998394
0.983998
1.25617
1.02244
3.23825
0.977791
0.99873
1.00963
1.25594
0.984109
3.24507
1.02243
0.710817
1.00989
0.671313
0.979478
0.708289
1.01723
0.667458
0.504664
0.674141
0.53517
0.710548
0.504591
0.671605
0.534883
0.666762
0.580805
0.609029
0.545713
0.66435
0.580775
0.607489
1.00961
0.607898
0.985813
0.660224
1.01788
0.604169
1.01261
0.998315
0.98748
0.975853
1.02343
3.55182
1.02327
14.1342
1.00923
0.976587
0.987299
3.55952
1.02342
14.0521
1.0235
0.663306
0.98619
0.607097
1.01796
0.659072
1.0129
0.603237
0.545917
0.608462
0.580801
0.663461
0.545743
0.606877
0.580782
0.605951
0.633083
0.636202
0.593155
0.604673
0.633033
0.636186
0.978684
0.636242
0.780249
0.601515
1.00671
0.636128
0.802267
0.969214
0.781372
0.769562
1.01799
15.2117
0.808819
24.6055
0.979744
0.7707
0.780868
15.0925
1.01827
24.1176
0.808895
0.604134
0.780985
0.636256
1.007
0.600738
0.802604
0.636122
0.593226
0.636206
0.633068
0.604184
0.593157
0.636185
0.633002
0.643627
0.695767
0.700411
0.647551
0.643563
0.696248
0.701784
0.762732
0.700523
0.704716
0.643552
0.782495
0.701967
0.707478
0.752786
0.704756
0.70559
0.788743
0.708057
0.737976
0.763478
0.705575
0.704753
0.788795
0.737976
0.708055
0.643706
0.704716
0.70052
0.78274
0.643546
0.707476
0.701977
0.647554
0.700406
0.695767
0.643567
0.647486
0.701818
0.696255
0.709219
0.771465
0.7783
0.713979
0.710621
0.771454
0.779164
0.709234
0.778449
0.780754
0.710757
0.711805
0.779515
0.781081
0.709869
0.780898
0.782115
0.712165
0.73125
0.781449
0.783552
0.709196
0.782116
0.780898
0.73125
0.712163
0.783551
0.781448
0.709373
0.780753
0.778348
0.711804
0.710756
0.78108
0.779534
0.713202
0.77817
0.771457
0.710626
0.713981
0.779181
0.771444
0.788935
0.864172
0.872619
0.792642
0.789968
0.864106
0.87262
0.791458
0.872872
0.874218
0.79022
0.79172
0.872855
0.875134
0.792824
0.874398
0.876179
0.792193
0.794123
0.875667
0.876954
0.791594
0.876179
0.874397
0.794123
0.792192
0.876954
0.875666
0.789098
0.874218
0.872871
0.791719
0.790225
0.875133
0.872854
0.792807
0.872619
0.864149
0.789972
0.792612
0.872619
0.864094
0.892612
0.980277
0.981965
0.890672
0.892584
0.980026
0.981906
0.894479
0.982479
0.984487
0.893054
0.895197
0.982669
0.985056
0.896441
0.985158
0.986248
0.895944
0.897037
0.985558
0.986511
0.895014
0.986248
0.985158
0.897037
0.895944
0.986511
0.985558
0.893085
0.984487
0.982478
0.895197
0.893053
0.985056
0.982669
0.890724
0.981964
0.980277
0.892583
0.890668
0.981906
0.980025
1.01578
1.13095
1.13298
1.01372
1.0158
1.13061
1.13333
1.01849
1.13353
1.13437
1.01668
1.01888
1.13387
1.13459
1.01975
1.13445
1.13454
1.01939
1.01999
1.13463
1.13472
1.01908
1.13454
1.13445
1.01999
1.01939
1.13472
1.13463
1.01638
1.13437
1.13353
1.01888
1.01668
1.13459
1.13387
1.01407
1.13298
1.13095
1.0158
1.01372
1.13333
1.13061
1.17787
1.30615
1.30655
1.17591
1.17817
1.30623
1.30671
1.17848
1.30675
1.30688
1.1784
1.17866
1.30685
1.30695
1.17862
1.30694
1.30697
1.1787
1.17877
1.30701
1.30705
1.17854
1.30697
1.30694
1.17877
1.1787
1.30705
1.30701
1.17809
1.30688
1.30675
1.17866
1.1784
1.30695
1.30685
1.17615
1.30655
1.30615
1.17817
1.17591
1.30671
1.30623
0.577549
0.451033
0.59529
0.450792
0.578267
0.451118
0.596053
0.59661
0.597068
0.626111
0.579407
0.596557
0.597743
0.626028
0.596507
0.626397
0.625912
0.597219
0.59716
0.626924
0.62662
0.596776
0.626014
0.626262
0.596644
0.596769
0.626062
0.626425
0.578536
0.626236
0.596839
0.596836
0.579281
0.626531
0.597593
0.450799
0.595519
0.450829
0.57859
0.450747
0.596295
0.451129
0.6016
0.45079
0.620729
0.451212
0.602377
0.450994
0.621531
0.636641
0.623348
0.669961
0.604231
0.636589
0.623908
0.670042
0.636424
0.670272
0.669701
0.63755
0.637161
0.671166
0.670552
0.63679
0.66981
0.670108
0.636582
0.637024
0.669906
0.670541
0.60334
0.670109
0.623097
0.637157
0.604074
0.670782
0.623734
0.450886
0.620968
0.450583
0.602624
0.451222
0.621817
0.451008
0.627585
0.448719
0.648746
0.450888
0.628393
0.448947
0.649572
0.681935
0.652347
0.720633
0.630907
0.682058
0.652556
0.720861
0.68165
0.720853
0.719991
0.683228
0.682553
0.722115
0.721152
0.682075
0.720105
0.720668
0.68188
0.682565
0.720362
0.721314
0.630163
0.7208
0.65207
0.682847
0.630738
0.721786
0.652457
0.450453
0.648992
0.448525
0.6287
0.450905
0.649895
0.448968
0.656291
0.443206
0.679062
0.447707
0.657133
0.443525
0.680055
0.734683
0.684077
0.7798
0.660322
0.734939
0.683894
0.780022
0.733945
0.779856
0.77865
0.736243
0.735191
0.781543
0.780254
0.734681
0.778778
0.779652
0.734349
0.73539
0.779226
0.780509
0.659909
0.779982
0.683848
0.735906
0.660234
0.781107
0.683841
0.44726
0.679381
0.443048
0.65743
0.447729
0.680415
0.44356
0.687172
0.442259
0.711326
0.442267
0.688234
0.442847
0.712503
0.796207
0.718211
0.848728
0.692308
0.79638
0.71757
0.848755
0.794896
0.848476
0.847574
0.797996
0.79661
0.850705
0.848822
0.796011
0.84754
0.848425
0.795514
0.796899
0.847456
0.849422
0.692433
0.848745
0.718433
0.797508
0.692265
0.850054
0.717541
0.441769
0.711594
0.442166
0.68861
0.442306
0.712871
0.442941
0.715707
0.460887
0.714315
0.445612
0.717355
0.462004
0.715595
0.861994
0.713539
0.909659
0.715602
0.864353
0.714216
0.910009
0.860995
0.910481
0.969081
0.86491
0.86102
0.911516
0.906509
0.861814
0.968815
0.910208
0.860013
0.863251
0.905971
0.910517
0.714996
0.909918
0.713735
0.864627
0.715633
0.911623
0.714448
0.444687
0.715144
0.460848
0.717735
0.445683
0.716177
0.461986
0.714574
0.495179
0.712205
0.469477
0.71589
0.495192
0.714321
0.917142
0.710554
0.971203
0.714474
0.917264
0.712406
0.969295
0.992002
0.97548
1.19559
0.918855
0.91361
0.970843
0.963968
0.917907
1.19476
0.975191
0.913132
0.917908
0.963498
0.970364
0.713921
0.971503
0.710855
0.918953
0.714714
0.970655
0.712778
0.468696
0.713312
0.495147
0.716484
0.469458
0.715086
0.495169
0.710511
0.53488
0.671557
0.504663
0.712749
0.535168
0.673479
0.979423
0.668033
1.01708
0.710767
0.977246
0.671281
1.01124
1.25849
1.02272
3.2414
0.978782
0.971484
1.01108
0.99901
0.984094
3.23992
1.02242
0.970996
0.978141
0.998869
1.00969
0.709065
1.01742
0.668659
0.978652
0.711178
1.00985
0.672024
0.504557
0.673171
0.534855
0.713581
0.504642
0.674824
0.535161
0.663422
0.580783
0.606856
0.545914
0.665299
0.5808
0.608134
1.01782
0.603552
1.01243
0.66327
1.01119
0.607077
0.985678
3.55423
1.02367
14.3944
1.01097
0.998923
0.986281
0.976139
1.0234
14.3522
1.02347
0.99877
1.00967
0.976557
0.987568
0.660301
1.01316
0.604086
1.00991
0.664082
0.986797
0.607449
0.545719
0.607815
0.580774
0.666662
0.545909
0.608968
0.580799
0.604174
0.633007
0.636188
0.593224
0.605192
0.633066
0.636214
1.00649
0.636122
0.801936
0.604118
0.979543
0.636266
0.781436
15.5612
0.809526
25.3277
0.979879
0.969767
0.780965
0.769795
1.01824
24.8939
0.808954
0.969934
0.980248
0.77006
0.780594
0.601413
0.802788
0.636113
0.979923
0.604521
0.780526
0.636258
0.593154
0.636163
0.633002
0.605902
0.593223
0.636203
0.633065
0.643569
0.696257
0.70182
0.647553
0.643635
0.695764
0.700409
0.782108
0.701977
0.707534
0.643717
0.763916
0.700534
0.704701
0.708084
0.737984
0.763561
0.753031
0.704769
0.705579
0.788845
0.737984
0.708073
0.753295
0.762899
0.705586
0.704805
0.643542
0.707494
0.701962
0.762968
0.643712
0.704774
0.700535
0.647488
0.701782
0.696247
0.643629
0.647551
0.700411
0.695763
0.710627
0.771445
0.779182
0.7132
0.709218
0.771454
0.778174
0.711836
0.779531
0.781126
0.709388
0.70924
0.778368
0.780746
0.731257
0.781489
0.783597
0.709217
0.709858
0.780889
0.781512
0.712181
0.783597
0.781487
0.709867
0.70925
0.781513
0.780916
0.710752
0.781125
0.77951
0.70931
0.70939
0.78078
0.778467
0.713977
0.779162
0.771453
0.70922
0.713199
0.778302
0.77146
0.789972
0.864094
0.872619
0.792804
0.78883
0.864144
0.872628
0.791778
0.87285
0.875187
0.789118
0.791479
0.87291
0.874242
0.794166
0.875709
0.877022
0.791609
0.792173
0.874413
0.876096
0.792249
0.877022
0.875709
0.792173
0.791612
0.876096
0.874412
0.790215
0.875186
0.87285
0.791482
0.789198
0.874242
0.872909
0.792641
0.872618
0.864105
0.788937
0.792832
0.872627
0.864166
0.892583
0.980026
0.981906
0.890718
0.892617
0.98027
0.981964
0.895188
0.982669
0.985056
0.893106
0.89443
0.982478
0.984455
0.897123
0.985558
0.986511
0.894876
0.896366
0.98508
0.986214
0.895969
0.986511
0.985558
0.896366
0.894875
0.986214
0.98508
0.893054
0.985056
0.982669
0.89443
0.893105
0.984455
0.982478
0.890672
0.981906
0.980025
0.892616
0.890725
0.981964
0.98027
1.0158
1.13061
1.13333
1.01407
1.01578
1.13092
1.13298
1.01888
1.13387
1.13459
1.01638
1.01849
1.13353
1.13437
1.01999
1.13463
1.13472
1.01906
1.01974
1.13445
1.13454
1.01939
1.13472
1.13463
1.01974
1.01906
1.13454
1.13445
1.01668
1.13459
1.13387
1.01849
1.01638
1.13437
1.13353
1.01372
1.13333
1.13061
1.01578
1.01407
1.13298
1.13092
1.17817
1.30623
1.30671
1.17616
1.17787
1.30616
1.30655
1.17866
1.30685
1.30695
1.17809
1.17848
1.30675
1.30688
1.17877
1.30701
1.30705
1.17854
1.17862
1.30694
1.30697
1.1787
1.30705
1.30701
1.17862
1.17854
1.30697
1.30694
1.1784
1.30695
1.30685
1.17848
1.17809
1.30688
1.30675
1.17591
1.30671
1.30623
1.17787
1.17616
1.30655
1.30616
0.579729
0.450945
0.59728
0.451963
0.451441
0.451814
0.450936
0.590773
0.598637
0.615887
0.451591
0.451487
0.451066
0.450838
0.590772
0.616008
0.616053
0.451139
0.450622
0.450448
0.449912
0.590352
0.615758
0.615319
0.450646
0.451312
0.44994
0.450633
0.580202
0.615942
0.598423
0.451699
0.4516
0.451064
0.451079
0.450634