/*--------------------------------*- C++ -*----------------------------------*\
| =========                 |                                                 |
| \\      /  F ield         | OpenFOAM: The Open Source CFD Toolbox           |
|  \\    /   O peration     | Version:  2206                                  |
|   \\  /    A nd           | Website:  www.openfoam.com                      |
|    \\/     M anipulation  |                                                 |
\*---------------------------------------------------------------------------*/
FoamFile
{
    version     2.0;
    format      ascii;
    arch        "LSB;label=32;scalar=64";
    class       volScalarField;
    location    "200";
    object      yPlus;
}
// * * * * * * * * * * * * * * * * * * * * * * * * * * * * * * * * * * * * * //

dimensions      [0 0 0 0 0 0 0];

internalField   uniform 0;

boundaryField
{
    movingWall
    {
        type            calculated;
        value           uniform 0;
    }
    front
    {
        type            calculated;
        value           uniform 0;
    }
    back
    {
        type            calculated;
        value           uniform 0;
    }
    sphere_1m
    {
        type            calculated;
        value           nonuniform List<scalar> 
336
(
694.303
698.214
645.228
438.089
1226.11
443.351
1249.48
447.21
1206.31
434.402
1268.73
496.98
3410.54
1507.52
486.883
3415.02
580.233
3330.85
498.864
3412.6
579.634
3328.95
486.572
3412.85
1524.14
579.399
3329.31
578.792
3327.48
1407.52
786.354
1407.84
790.365
769.606
1399.72
3335.13
3327.03
3155.18
3343.11
3331.18
3160.86
3337.89
3327.87
3156.14
3339.91
3330.19
3159.58
619.893
1473.04
323.802
1070.46
1058.01
619.759
1233.83
271.717
1481.54
641.171
1226.45
273.898
1450.01
1081.48
600.291
1504.53
321.573
857.182
829.83
702.261
1091.57
3549.07
2427.02
2472.15
482.042
805.519
2224.39
3504
655.332
1373.73
1415.33
829.831
701.635
1078.72
3554.67
2446.51
2487.33
495.001
824.883
2236.22
3269.78
3512.6
3379.92
3119.88
2718.07
2692.08
3233.19
1333.23
828.595
701.162
1090.7
3551.7
2434.63
2864.05
2477.96
491.717
2227.3
817.469
3263.81
3506.87
2493.74
2718.01
3119.18
2690.8
1427.98
831.452
703.417
1081.51
2437.75
921.452
2480.31
483.684
2232.42
810.796
3509.42
3377.97
3118.13
2716.87
2492.55
3117.27
2716.55
647.685
325.547
305.727
300.296
331.898
2037.15
3481.85
3117.04
1553.74
2058.32
1533.22
3484.83
3119.39
1573.47
2046.18
1515.47
3484.6
3119.06
1577.63
2048.69
3482.16
3117.56
1548.18
2618.73
1416.03
771.836
1399.21
1279.11
1408.65
1404.3
1421.39
1285.43
1877.75
2494.31
1876.83
1185.09
1877.07
2493.28
1186.48
1504.8
1876.14
1504.39
353.094
566.242
1495.01
1068.67
1344.96
996.36
1413.02
1188.53
475.532
938.577
455.567
262.167
443.795
351.926
596.085
1004.13
845.297
1153.13
430.806
924.643
1494.09
280.07
450.018
428.911
365.339
593.014
1003.64
1136.76
424.152
915.739
1478.32
1401.93
463.24
290.685
447.933
341.013
568.391
1510.96
1385.45
997.641
1204.36
482.009
946.972
250.442
442.456
424.771
663.626
1319.35
1931.78
2858.76
3053.98
3096.56
3482.18
3483.24
3523.28
1896.39
2923.6
3081.45
3375.13
3438.14
3230.12
3471.02
907.723
3260.19
3370.06
3109.95
1325.17
3066.6
2873.8
1955.67
3110.05
3486.69
3487.81
3529.58
3442.05
3477.52
1918.52
2935.15
3094.23
935.311
3374.75
3113.31
1505.65
1186.31
2283.89
2533.05
2149.63
2141.25
2619.34
1727.05
3027.04
3164.92
3179.26
2951.48
869.1
661.118
1316.05
1948.45
3060.46
3106.2
3487.82
3485.86
3528.33
1917.49
2936.5
3092.92
3440.64
3231.89
3475.23
920.067
3110.71
3371.51
3376.88
1505.48
2283.68
2148.19
2531.22
2139.45
2617.26
1725.41
3025.2
3176.61
2949.18
3162.47
834.847
658.461
1329.02
1938.33
3551.89
2868.03
3059.76
3100.1
3482.09
3484.18
3524.48
1896.65
2921.95
3082.45
3439.57
3231.44
3473.22
3373.1
3265.7
3112.47
2532
2148.76
2690.96
2140.63
1727.07
2282.66
3025.82
3163.52
3178.12
2950.4
1185.29
2530.24
2689.7
2147.4
2138.84
2616.67
1725.45
2282.46
3024.03
3161.19
3175.59
2948.21
)
;
    }
}


// ************************************************************************* //
