/*--------------------------------*- C++ -*----------------------------------*\
| =========                 |                                                 |
| \\      /  F ield         | OpenFOAM: The Open Source CFD Toolbox           |
|  \\    /   O peration     | Version:  2206                                  |
|   \\  /    A nd           | Website:  www.openfoam.com                      |
|    \\/     M anipulation  |                                                 |
\*---------------------------------------------------------------------------*/
FoamFile
{
    version     2.0;
    format      ascii;
    arch        "LSB;label=32;scalar=64";
    class       volScalarField;
    location    "600";
    object      k;
}
// * * * * * * * * * * * * * * * * * * * * * * * * * * * * * * * * * * * * * //

dimensions      [0 2 -2 0 0 0 0];

internalField   nonuniform List<scalar> 
187974
(
0.317435
0.290386
0.291957
0.292079
0.292101
0.291929
0.289841
0.318924
0.336122
0.31242
0.314234
0.314646
0.314677
0.314216
0.311755
0.337921
0.347422
0.326848
0.328571
0.32884
0.328873
0.328563
0.326096
0.349388
0.359623
0.344987
0.34654
0.34644
0.346477
0.346581
0.344161
0.36181
0.375794
0.364302
0.365518
0.365148
0.365186
0.365625
0.363401
0.378192
0.393975
0.384994
0.385844
0.385767
0.385811
0.386021
0.383909
0.396527
0.413959
0.406529
0.407513
0.408057
0.408104
0.407702
0.405338
0.416383
0.436481
0.430239
0.431703
0.431899
0.43195
0.431871
0.429172
0.439225
0.461157
0.458145
0.458522
0.458457
0.458501
0.458647
0.456657
0.464861
0.488615
0.488661
0.488415
0.48879
0.488793
0.488609
0.486843
0.492904
0.526043
0.523089
0.523813
0.52427
0.524268
0.523896
0.522152
0.530069
0.565147
0.563073
0.564416
0.565044
0.565027
0.564373
0.561148
0.570601
0.615587
0.612188
0.612113
0.612042
0.612035
0.612145
0.610118
0.621688
0.674428
0.670756
0.670897
0.671119
0.671147
0.671058
0.668552
0.681094
0.745171
0.741025
0.741323
0.741457
0.741502
0.741455
0.739199
0.751054
0.831439
0.827125
0.827336
0.827405
0.827415
0.82739
0.827589
0.831123
0.934227
0.934874
0.934908
0.934878
0.934875
0.934901
0.935011
0.936212
1.07348
1.07275
1.07287
1.07291
1.07291
1.07287
1.07276
1.07319
1.25494
1.25422
1.25428
1.25429
1.25429
1.25428
1.25421
1.25501
1.49598
1.4954
1.49542
1.49544
1.49544
1.49542
1.49539
1.496
0.283305
0.289465
0.289477
0.28931
0.289337
0.289497
0.289455
0.283494
0.305495
0.309917
0.309859
0.309689
0.309738
0.309894
0.309906
0.305804
0.312726
0.319507
0.319352
0.31936
0.319345
0.319034
0.319454
0.299303
0.347137
0.335371
0.334691
0.333822
0.333758
0.333562
0.335408
0.323097
0.378578
0.351726
0.350818
0.348506
0.348299
0.348832
0.352086
0.344265
0.412738
0.368687
0.368815
0.365848
0.365543
0.366233
0.369603
0.364345
0.439387
0.389271
0.3908
0.386783
0.386468
0.387777
0.390701
0.387602
0.466551
0.415625
0.415947
0.411598
0.41135
0.413076
0.416428
0.414084
0.487512
0.444029
0.443342
0.441093
0.441158
0.440925
0.444146
0.441585
0.512018
0.474591
0.475644
0.475481
0.475383
0.475351
0.475197
0.47275
0.537768
0.511609
0.511356
0.511339
0.511335
0.511311
0.511209
0.510531
0.564032
0.552125
0.551881
0.551848
0.551871
0.551818
0.552101
0.550719
0.598602
0.599428
0.599263
0.599181
0.599166
0.599175
0.599386
0.597745
0.655173
0.655
0.655073
0.655286
0.655337
0.655286
0.655053
0.652927
0.721791
0.721934
0.722394
0.723017
0.723292
0.723207
0.722722
0.719661
0.802439
0.80318
0.803986
0.804235
0.804244
0.804168
0.803912
0.800909
0.902794
0.903832
0.904492
0.904584
0.904558
0.904505
0.904215
0.901423
1.03072
1.03178
1.03222
1.03238
1.03237
1.03228
1.03199
1.03119
1.19886
1.19934
1.19899
1.19902
1.19903
1.19893
1.19975
1.19847
1.49827
1.49757
1.4972
1.49721
1.49721
1.49721
1.49774
1.49808
0.316124
0.289093
0.291574
0.77836
0.770347
0.290757
0.289228
0.317436
0.336758
0.305635
0.306062
0.244825
0.260978
0.306048
0.306273
0.337126
0.363042
0.31932
0.32
0.316975
0.312544
0.320193
0.319947
0.30225
0.391294
0.33258
0.333736
0.333955
0.315335
0.333813
0.333742
0.322548
0.424004
0.349812
0.351061
0.351112
0.350368
0.351067
0.351074
0.33882
0.456378
0.368874
0.370256
0.3703
0.370304
0.370259
0.370265
0.356444
0.472967
0.390063
0.391579
0.391651
0.391669
0.391596
0.391583
0.3768
0.487166
0.413724
0.415346
0.415437
0.415472
0.415373
0.415349
0.409823
0.507559
0.440334
0.441972
0.442074
0.442039
0.442003
0.441975
0.445063
0.526577
0.473154
0.472086
0.472144
0.472115
0.472064
0.472172
0.476566
0.539777
0.50721
0.506704
0.506334
0.506266
0.506271
0.506907
0.511847
0.569818
0.546877
0.546397
0.545947
0.545742
0.545913
0.546556
0.552376
0.603956
0.593349
0.59312
0.592261
0.592085
0.592271
0.593246
0.599586
0.655549
0.647799
0.647457
0.647343
0.647218
0.647287
0.647573
0.655186
0.721766
0.713174
0.713559
0.714517
0.714988
0.714854
0.713659
0.721767
0.802473
0.792291
0.793692
0.79449
0.794436
0.794103
0.793414
0.802535
0.902786
0.890363
0.891764
0.89272
0.892603
0.892209
0.891133
0.902602
1.03166
1.01491
1.01571
1.01435
1.01344
1.0148
1.01482
1.03111
1.19891
1.17522
1.17228
1.17073
1.17073
1.17072
1.17436
1.19749
1.49718
1.42211
1.42207
1.42207
1.42207
1.42207
1.42205
1.49716
0.336246
0.287568
0.296334
1.44391
1.42353
0.295956
0.289331
0.334468
0.355945
0.306047
0.308458
1.19646
3.89992
0.315592
0.306667
0.356815
0.416037
0.319926
0.322514
1.87624
4.5516
0.320491
0.320333
0.30273
0.420753
0.334336
0.334951
1.50212
5.82844
0.297193
0.334131
0.325431
0.433392
0.351615
0.352342
0.972158
6.04136
0.312411
0.35133
0.343852
0.447512
0.370793
0.371304
0.360607
2.59479
0.37125
0.370478
0.364195
0.462561
0.392156
0.392531
0.397563
3.72523
0.39453
0.391886
0.391631
0.479013
0.416052
0.416281
0.417361
8.03611
0.419223
0.415806
0.416377
0.497564
0.442894
0.440717
0.448978
13.8213
0.444478
0.440842
0.443935
0.518565
0.473257
0.470552
0.473848
0.499951
0.472715
0.470923
0.475244
0.542295
0.507886
0.504493
0.506942
0.473305
0.506246
0.504579
0.511247
0.571597
0.547677
0.544451
0.543496
0.406868
0.543298
0.544566
0.552626
0.606333
0.593642
0.590081
0.588547
0.592864
0.588398
0.590396
0.599756
0.6557
0.647923
0.643916
0.642325
0.645211
0.642287
0.644191
0.65523
0.721763
0.712959
0.708567
0.708263
0.709732
0.708344
0.708817
0.721679
0.802291
0.791605
0.785791
0.789194
0.789575
0.789068
0.787181
0.802164
0.902294
0.888323
0.889673
0.889294
0.887943
0.890819
0.8905
0.901737
1.02907
1.01068
1.01208
1.01055
1.01054
1.01056
1.01236
1.02888
1.19604
1.17105
1.1706
1.17059
1.17059
1.17059
1.1706
1.19543
1.49677
1.42208
1.42207
1.42207
1.42207
1.42207
1.42207
1.49677
0.334154
0.289034
0.294779
2.03234
1.94857
0.294356
0.285537
0.338273
0.354827
0.305417
0.308202
0.542962
2.14119
0.314638
0.307681
0.354525
0.421739
0.320366
0.322082
0.700843
2.03124
0.326801
0.320914
0.309092
0.425517
0.333926
0.335159
0.356838
1.34979
0.343779
0.334783
0.331902
0.437366
0.351371
0.352451
0.379428
1.11256
0.361158
0.352112
0.349863
0.450221
0.370632
0.371692
0.400758
1.22875
0.381054
0.371336
0.369418
0.464125
0.392049
0.393139
0.425058
2.23638
0.4033
0.392739
0.39126
0.480064
0.415972
0.417045
0.452295
5.08621
0.427807
0.416624
0.415745
0.498511
0.44284
0.441928
0.468968
7.81304
0.457762
0.441746
0.443313
0.519371
0.473232
0.472009
0.504815
10.9626
0.489231
0.471801
0.474659
0.542917
0.507877
0.506344
0.545874
11.1943
0.526907
0.506123
0.510658
0.57057
0.547692
0.545822
0.576559
18.7283
0.568168
0.545584
0.552226
0.603669
0.593876
0.591504
0.627534
6.66187
0.617747
0.591272
0.599651
0.655554
0.64807
0.64474
0.671169
0.662492
0.644613
0.655205
0.721631
0.712686
0.708117
0.707497
0.73389
0.707124
0.70813
0.721415
0.802166
0.791094
0.785458
0.785237
0.785123
0.785266
0.785491
0.80189
0.902031
0.888016
0.887998
0.887918
0.887887
0.887937
0.88802
0.90167
1.02897
1.01063
1.01056
1.01054
1.01053
1.01054
1.01057
1.02849
1.19591
1.17065
1.17059
1.17058
1.17058
1.17059
1.17059
1.1953
1.49677
1.42208
1.42207
1.42207
1.42207
1.42207
1.42207
1.49677
0.327105
0.288354
0.290672
0.622622
0.593017
0.290433
0.286851
0.329837
0.355594
0.303327
0.306562
0.343644
1.42824
0.303593
0.30661
0.351664
0.427127
0.319928
0.320266
0.348151
0.84406
0.320398
0.319988
0.306448
0.422484
0.333845
0.334116
0.332641
0.507007
0.334651
0.333857
0.330262
0.437328
0.351261
0.351735
0.351997
0.360057
0.351491
0.351445
0.351998
0.45178
0.370537
0.371105
0.371534
0.597606
0.37093
0.370891
0.371882
0.468046
0.391865
0.392313
0.393325
1.08116
0.392507
0.392253
0.393564
0.486989
0.415709
0.41614
0.417129
0.77377
0.416377
0.41629
0.417839
0.513973
0.442266
0.441135
0.441573
0.381691
0.441283
0.441067
0.444691
0.524583
0.472547
0.470935
0.471236
0.468916
0.47116
0.470472
0.475525
0.554566
0.507228
0.505035
0.505152
0.464942
0.505602
0.505117
0.510833
0.571456
0.547266
0.544381
0.54247
0.543296
0.542358
0.544492
0.552683
0.603776
0.593539
0.590027
0.588253
0.588319
0.588076
0.59006
0.599605
0.655629
0.647844
0.644102
0.642289
0.642282
0.642185
0.644015
0.655147
0.721849
0.712831
0.708818
0.708745
0.708614
0.708589
0.709183
0.721523
0.802572
0.791819
0.787482
0.790112
0.789785
0.789403
0.787221
0.802435
0.903261
0.889182
0.8906
0.890649
0.888591
0.891618
0.890562
0.902986
1.02952
1.01277
1.01093
1.01056
1.01056
1.01057
1.01201
1.02935
1.19628
1.17215
1.17109
1.17059
1.17059
1.17059
1.17302
1.19611
1.49772
1.42275
1.42207
1.42207
1.42207
1.42207
1.42204
1.49774
0.311494
0.288229
0.28788
0.284707
0.285054
0.288614
0.288324
0.305997
0.335388
0.309338
0.30895
0.307128
0.307743
0.309593
0.309111
0.328304
0.417348
0.319871
0.320001
0.320013
0.318918
0.319638
0.319615
0.303298
0.410144
0.335938
0.335949
0.335777
0.335614
0.33571
0.335615
0.325832
0.419278
0.353449
0.353168
0.35326
0.353244
0.353275
0.353157
0.344593
0.415975
0.37275
0.372611
0.372686
0.372672
0.372705
0.372555
0.367989
0.4151
0.394278
0.394182
0.394257
0.394245
0.3943
0.394135
0.39291
0.43891
0.418412
0.418274
0.418338
0.418343
0.418421
0.418265
0.417924
0.457479
0.445628
0.445378
0.445439
0.445415
0.445532
0.445395
0.44505
0.477656
0.476295
0.476072
0.476118
0.476073
0.476176
0.476057
0.476383
0.511442
0.511483
0.511175
0.511097
0.511038
0.511137
0.511202
0.512049
0.552483
0.552153
0.551761
0.551567
0.55149
0.551707
0.551964
0.552411
0.599523
0.599543
0.599192
0.599015
0.598899
0.599183
0.599238
0.599521
0.65498
0.655096
0.654938
0.655233
0.655136
0.655245
0.654826
0.655073
0.721716
0.722372
0.723
0.723719
0.723627
0.723593
0.722404
0.721812
0.803125
0.804175
0.804295
0.804955
0.804933
0.804777
0.803987
0.803087
0.903837
0.904707
0.904955
0.905685
0.905737
0.905597
0.904602
0.903611
1.0312
1.03246
1.0333
1.03331
1.03347
1.03351
1.03263
1.0308
1.19823
1.20071
1.20095
1.20029
1.20038
1.20031
1.20105
1.19952
1.49897
1.49886
1.49856
1.49858
1.49858
1.49855
1.49893
1.49862
0.307819
0.288357
0.288979
0.288932
0.288991
0.289037
0.288564
0.320778
0.3247
0.309234
0.309449
0.309582
0.309607
0.309588
0.309117
0.337961
0.338599
0.322369
0.32275
0.322856
0.322885
0.322861
0.322379
0.347775
0.355466
0.339007
0.339483
0.339552
0.339577
0.339544
0.339026
0.361961
0.375905
0.356788
0.357448
0.357479
0.357502
0.357478
0.356879
0.378587
0.390959
0.3767
0.377409
0.377429
0.377463
0.377437
0.376752
0.396693
0.414732
0.398822
0.399605
0.399624
0.399677
0.399666
0.39888
0.416038
0.435397
0.423644
0.424488
0.424505
0.424569
0.424597
0.423729
0.435822
0.459531
0.45161
0.452591
0.452609
0.452646
0.452699
0.451751
0.459557
0.487974
0.483365
0.484534
0.484561
0.484575
0.484581
0.483488
0.487754
0.525952
0.519678
0.521049
0.521076
0.521078
0.521043
0.519765
0.525646
0.568649
0.561653
0.563182
0.56321
0.563213
0.56317
0.561703
0.568222
0.618766
0.610594
0.612425
0.612447
0.61245
0.612409
0.610631
0.618238
0.677683
0.668812
0.671016
0.671081
0.671088
0.670997
0.668853
0.677044
0.747196
0.739518
0.741433
0.74151
0.741509
0.741406
0.739564
0.746421
0.827589
0.827762
0.827354
0.827405
0.827405
0.827326
0.827796
0.826541
0.936451
0.934672
0.934818
0.934858
0.934859
0.934796
0.934788
0.935304
1.07429
1.07268
1.07283
1.07289
1.0729
1.07276
1.07264
1.07313
1.25565
1.25426
1.25428
1.2543
1.2543
1.25412
1.25382
1.2547
1.49578
1.49537
1.49541
1.49543
1.49543
1.4954
1.49534
1.49594
0.33372
0.345345
0.346553
0.333413
0.334006
0.346124
0.34709
0.333832
0.346565
0.346601
0.334256
0.282255
0.347213
0.322288
0.314747
0.346639
0.343464
0.496393
6.39456
0.377443
4.99969
0.333911
0.343527
0.34661
6.40032
0.448641
4.97882
0.355956
0.333753
0.346584
0.346582
0.284485
0.334277
0.324626
0.346914
0.333019
0.346578
0.345842
0.334048
0.332618
0.346802
0.345376
0.35105
0.363921
0.365251
0.350604
0.351559
0.364884
0.365704
0.351086
0.365267
0.365287
0.351643
0.33852
0.365732
0.366632
0.350317
0.365304
0.365362
0.352108
3.86201
0.365314
0.734825
0.351082
0.365362
0.365271
3.83316
0.339006
0.726954
0.364366
0.351079
0.365267
0.365287
0.340301
0.351351
0.366854
0.365437
0.35033
0.365278
0.364493
0.35127
0.349845
0.3654
0.364174
0.370237
0.384547
0.386007
0.370718
0.370678
0.386533
0.386525
0.37028
0.386033
0.386071
0.370707
0.371947
0.38635
0.387101
0.370302
0.386099
0.38611
0.371698
0.403803
0.387818
0.514418
0.370266
0.386112
0.386061
0.399833
0.372563
0.514538
0.387724
0.370276
0.386047
0.386054
0.371561
0.370409
0.386969
0.386266
0.369464
0.386038
0.385196
0.370372
0.369144
0.386212
0.384962
0.391551
0.407562
0.409121
0.392108
0.392206
0.409796
0.409912
0.391621
0.409154
0.409206
0.391912
0.392584
0.409638
0.410485
0.391666
0.40924
0.409268
0.393397
0.632932
0.411769
1.19353
0.391611
0.409273
0.409197
0.634166
0.393369
1.20889
0.411769
0.391601
0.409178
0.409177
0.39264
0.391829
0.410534
0.40953
0.390732
0.409157
0.408339
0.391766
0.391092
0.40947
0.408732
0.415312
0.433429
0.434985
0.416029
0.416137
0.435761
0.435377
0.415402
0.435022
0.435084
0.415886
0.416782
0.435467
0.436706
0.415466
0.435122
0.435119
0.418242
1.4569
0.438752
2.42794
0.415392
0.435127
0.435072
1.47953
0.418238
2.47382
0.438794
0.41537
0.435053
0.435048
0.416825
0.415772
0.436749
0.435485
0.414517
0.435024
0.434259
0.415683
0.415078
0.435393
0.435753
0.441935
0.46374
0.464175
0.442868
0.440631
0.465252
0.466857
0.442035
0.464174
0.464229
0.440668
0.442755
0.466563
0.467912
0.442032
0.464269
0.464237
0.444023
6.62042
0.468619
0.425023
0.442021
0.464242
0.464209
6.68624
0.444101
0.427152
0.468657
0.441998
0.464192
0.464208
0.442802
0.440678
0.467931
0.466571
0.441179
0.464221
0.464292
0.440639
0.442889
0.466998
0.465277
0.472126
0.498061
0.497721
0.473205
0.470947
0.498708
0.499999
0.472102
0.497596
0.497325
0.470501
0.471745
0.499969
0.500911
0.47211
0.497355
0.497289
0.472343
0.365297
0.501265
0.505412
0.472081
0.497295
0.497282
0.363499
0.472379
0.505463
0.501306
0.472119
0.497285
0.497642
0.471762
0.47051
0.500931
0.499976
0.472777
0.497783
0.498032
0.470956
0.473233
0.499994
0.498745
0.506852
0.536373
0.536082
0.507805
0.504531
0.536992
0.539201
0.506318
0.535987
0.535552
0.504494
0.505386
0.539294
0.54009
0.50626
0.535471
0.535274
0.505734
0.509375
0.540173
0.541806
0.50625
0.535284
0.535364
0.509426
0.505777
0.540647
0.540234
0.506746
0.53548
0.536013
0.505405
0.504502
0.54015
0.539299
0.507159
0.536135
0.53632
0.504525
0.507845
0.539186
0.537036
0.546502
0.581013
0.580753
0.547321
0.544445
0.581244
0.583985
0.546012
0.580648
0.579925
0.544395
0.542599
0.583923
0.584906
0.54573
0.579846
0.579593
0.542788
0.549117
0.585096
0.58794
0.545833
0.579615
0.579725
0.547529
0.542849
0.58794
0.585167
0.546424
0.579838
0.580671
0.542659
0.54439
0.584969
0.583916
0.546817
0.580819
0.580949
0.544427
0.547369
0.583957
0.581304
0.593175
0.633235
0.633005
0.593514
0.590208
0.633322
0.636672
0.592362
0.63298
0.632736
0.59006
0.587924
0.636585
0.638471
0.592034
0.632678
0.632481
0.588113
0.590862
0.638552
0.640156
0.592135
0.632505
0.632521
0.590859
0.588185
0.640157
0.638655
0.593142
0.632642
0.633012
0.587988
0.590052
0.638518
0.636576
0.593282
0.633089
0.633162
0.590177
0.593576
0.636632
0.633397
0.647493
0.695754
0.695858
0.64778
0.643974
0.695431
0.699894
0.647371
0.695956
0.696215
0.643684
0.642043
0.699967
0.703502
0.647193
0.696442
0.696869
0.642112
0.643888
0.703516
0.705213
0.64721
0.696878
0.696783
0.643888
0.642218
0.705212
0.703674
0.647491
0.696761
0.696147
0.64209
0.643686
0.703571
0.700058
0.647715
0.696005
0.695694
0.643929
0.647872
0.700013
0.695674
0.713415
0.771206
0.772151
0.712762
0.708954
0.770477
0.776336
0.714188
0.77242
0.772823
0.708903
0.708088
0.77644
0.778526
0.715018
0.773013
0.772915
0.708126
0.709628
0.778594
0.779212
0.714934
0.773039
0.772761
0.709627
0.708276
0.77918
0.778803
0.713959
0.772676
0.772466
0.708224
0.709084
0.778584
0.776424
0.713077
0.772171
0.771044
0.708778
0.713
0.77629
0.770522
0.793418
0.863592
0.864452
0.791809
0.786874
0.861682
0.870234
0.794284
0.865084
0.865934
0.786733
0.789196
0.871089
0.872535
0.794347
0.8661
0.865851
0.789247
0.789832
0.872536
0.868657
0.794215
0.865865
0.865871
0.789826
0.789466
0.868658
0.872702
0.79371
0.865677
0.864941
0.789255
0.787266
0.872453
0.870192
0.792108
0.86446
0.862859
0.787005
0.791813
0.870215
0.861824
0.891278
0.980918
0.981318
0.888559
0.891251
0.978775
0.980906
0.892585
0.98177
0.982468
0.891523
0.892571
0.981241
0.97738
0.892569
0.981979
0.981226
0.891558
0.889012
0.976964
0.976952
0.892342
0.981194
0.98164
0.88901
0.891601
0.976952
0.976971
0.891477
0.981731
0.981215
0.89187
0.890752
0.977358
0.980329
0.889532
0.981026
0.979996
0.890469
0.888881
0.97972
0.978804
1.01526
1.1312
1.13057
1.01197
1.0147
1.12895
1.12649
1.01577
1.12965
1.12625
1.01419
1.01057
1.12613
1.12612
1.01347
1.12625
1.12625
1.01056
1.01056
1.12611
1.12611
1.01399
1.12625
1.12625
1.01056
1.01056
1.12611
1.12611
1.01472
1.12625
1.12977
1.01057
1.01378
1.12612
1.12613
1.01397
1.13092
1.13068
1.01392
1.01178
1.12647
1.12846
1.174
1.30149
1.30087
1.17227
1.17057
1.30058
1.30057
1.17072
1.30058
1.30058
1.17059
1.17059
1.30057
1.30057
1.17073
1.30058
1.30058
1.17059
1.17059
1.30057
1.30057
1.17073
1.30058
1.30058
1.17059
1.17059
1.30057
1.30057
1.17238
1.30058
1.30058
1.17059
1.1706
1.30057
1.30057
1.17475
1.30116
1.30153
1.17054
1.17196
1.30058
1.30061
0.334381
0.347119
0.347515
0.333895
0.334611
0.346812
0.347338
0.305496
0.347952
0.309173
0.335182
0.345271
0.347783
0.358121
5.79255
1.24656
6.33066
0.362419
2.13521
0.377144
2.06463
1.35215
6.36503
1.11826
2.15771
0.359761
2.0568
0.37726
0.334585
0.303519
0.347217
0.345008
0.334935
0.358146
0.347733
0.332842
0.346873
0.345845
0.334555
0.333908
0.347359
0.346819
0.351983
0.365808
0.366123
0.351325
0.351829
0.365562
0.366037
0.31357
0.36634
0.357171
0.352195
0.362774
0.366401
0.377257
6.04856
0.399533
3.39267
0.382487
1.97094
0.399207
1.46824
0.886613
3.37701
0.383487
1.95717
0.382887
1.44753
0.399392
0.351625
0.359758
0.365723
0.362737
0.35221
0.377182
0.366409
0.350312
0.365514
0.364352
0.351845
0.35133
0.366044
0.365564
0.371101
0.386591
0.386894
0.370563
0.371037
0.386402
0.386868
0.37038
0.386961
0.389395
0.37141
0.382335
0.387273
0.398435
2.62874
0.391566
2.97132
0.404451
1.30988
0.420464
1.15241
0.360304
2.94155
0.391605
1.29296
0.404595
1.15743
0.420563
0.370682
0.389027
0.386548
0.382257
0.371409
0.398349
0.387267
0.369291
0.386326
0.38534
0.371038
0.370563
0.386865
0.386399
0.392459
0.40982
0.41012
0.39198
0.392438
0.409676
0.410336
0.394439
0.410049
0.412707
0.392856
0.404121
0.410601
0.422202
3.71853
0.412888
6.7882
0.426287
1.25118
0.445456
2.19908
0.397494
6.75148
0.41286
1.26368
0.426364
2.2258
0.445479
0.392118
0.412798
0.409774
0.404032
0.39285
0.422117
0.410598
0.391963
0.409523
0.40964
0.392434
0.391976
0.410329
0.409671
0.416347
0.435878
0.435776
0.415918
0.416645
0.435768
0.436433
0.41913
0.435736
0.439371
0.417007
0.428586
0.436881
0.448869
8.03607
0.430667
12.4061
0.452432
2.77763
0.474899
5.57755
0.417315
12.3647
0.430206
2.80226
0.452458
5.55696
0.475026
0.415998
0.439496
0.435882
0.428511
0.417002
0.448848
0.436882
0.415966
0.435833
0.435872
0.41664
0.415914
0.436431
0.435766
0.440802
0.465297
0.467033
0.442793
0.441719
0.465219
0.467804
0.444357
0.46662
0.468926
0.441884
0.458257
0.468002
0.485662
13.8464
0.470381
2.25705
0.468214
7.73842
0.499734
11.0505
0.44928
2.27835
0.470442
7.69335
0.468206
11.0092
0.500008
0.440735
0.468969
0.466638
0.458212
0.441891
0.485764
0.46801
0.442887
0.46708
0.46529
0.441724
0.44279
0.467809
0.465217
0.470875
0.498782
0.499983
0.473187
0.471778
0.498734
0.501554
0.472682
0.499978
0.501721
0.471977
0.49005
0.501765
0.522956
0.51773
0.502478
0.485996
0.504513
11.2811
0.540105
14.3912
0.473905
0.488087
0.502553
11.2395
0.504805
14.0516
0.540362
0.470571
0.501774
0.500001
0.490163
0.471985
0.523086
0.501773
0.473249
0.500047
0.498772
0.471783
0.473185
0.501559
0.498731
0.504513
0.537194
0.539258
0.507847
0.506107
0.537178
0.540328
0.506189
0.53958
0.540644
0.506321
0.527891
0.540565
0.566726
0.472444
0.540899
0.356618
0.5454
14.074
0.575325
14.8181
0.507024
0.353357
0.540971
13.4482
0.545639
12.9632
0.575372
0.504516
0.540701
0.539627
0.528009
0.506328
0.566768
0.540573
0.507876
0.539347
0.537182
0.506112
0.507844
0.540334
0.537177
0.544471
0.581375
0.584024
0.547685
0.545579
0.581655
0.585186
0.543242
0.583936
0.585307
0.545818
0.569188
0.58543
0.616528
0.406393
0.585534
0.590037
0.577711
14.4435
0.627522
0.0350102
0.543566
0.590038
0.585634
12.2183
0.577783
0.347441
0.627769
0.544504
0.585381
0.584005
0.569246
0.545826
0.616733
0.585437
0.547665
0.584141
0.581361
0.545584
0.547684
0.585191
0.581655
0.590274
0.633459
0.636821
0.593883
0.591283
0.633663
0.63747
0.588322
0.636793
0.638549
0.591522
0.619814
0.637629
0.660194
0.592873
0.638714
0.641544
0.630906
0.489127
0.669368
3.44792
0.588648
0.641541
0.638851
0.765444
0.631138
3.33007
0.669648
0.590152
0.638657
0.636897
0.620012
0.591529
0.660366
0.637632
0.593628
0.636984
0.633446
0.591287
0.593883
0.637472
0.633663
0.644021
0.695607
0.699697
0.648079
0.644624
0.6954
0.699506
0.642185
0.699702
0.703555
0.644764
0.662664
0.699512
0.703299
0.645212
0.703636
0.705379
0.671453
3.96474
0.703854
0.735724
0.642468
0.705398
0.703801
3.82598
0.671722
0.735728
0.703852
0.644031
0.703789
0.70004
0.662828
0.644767
0.703298
0.699512
0.647928
0.700141
0.695748
0.644625
0.648079
0.699507
0.6954
0.708469
0.770305
0.776166
0.712694
0.708125
0.769987
0.774923
0.708154
0.776103
0.778575
0.708119
0.707135
0.774896
0.774688
0.709715
0.77854
0.778957
0.707531
0.731052
0.774658
0.774545
0.708405
0.77894
0.778728
0.731063
0.707528
0.774545
0.774657
0.708802
0.778406
0.77648
0.707133
0.70812
0.774688
0.774897
0.713077
0.776448
0.770613
0.708126
0.712694
0.774923
0.769987
0.786331
0.861754
0.86992
0.791104
0.785482
0.86173
0.867975
0.789246
0.870438
0.871718
0.785457
0.785262
0.867957
0.867874
0.78958
0.870932
0.867999
0.785233
0.785118
0.867859
0.867814
0.789385
0.867999
0.871628
0.785118
0.785232
0.867814
0.867859
0.787338
0.871855
0.870223
0.785262
0.785457
0.867874
0.867957
0.791893
0.870324
0.861714
0.785482
0.791104
0.867975
0.861729
0.889608
0.977318
0.97847
0.888029
0.888019
0.977055
0.976976
0.890436
0.978859
0.976966
0.887996
0.887935
0.976964
0.976936
0.887943
0.976947
0.976941
0.887916
0.887884
0.976928
0.976915
0.889401
0.976941
0.976951
0.887884
0.887916
0.976915
0.976928
0.8904
0.976964
0.97873
0.887935
0.887996
0.976936
0.976964
0.888248
0.978333
0.977642
0.888019
0.888029
0.976976
0.977055
1.01254
1.12729
1.12612
1.01065
1.01057
1.1262
1.12612
1.01056
1.12612
1.12611
1.01056
1.01054
1.12611
1.12611
1.01054
1.12611
1.12611
1.01054
1.01053
1.1261
1.1261
1.01055
1.12611
1.12611
1.01053
1.01054
1.1261
1.1261
1.01197
1.12611
1.12612
1.01054
1.01056
1.12611
1.12611
1.01089
1.12613
1.12673
1.01057
1.01065
1.12612
1.1262
1.1706
1.30058
1.30057
1.17067
1.17059
1.30058
1.30057
1.17059
1.30057
1.30057
1.17059
1.17059
1.30057
1.30057
1.17059
1.30057
1.30057
1.17058
1.17058
1.30057
1.30057
1.17059
1.30057
1.30057
1.17058
1.17058
1.30057
1.30057
1.17059
1.30057
1.30057
1.17059
1.17059
1.30057
1.30057
1.1707
1.30057
1.30058
1.17059
1.17067
1.30057
1.30058
0.334791
0.346853
0.347618
0.333833
0.334506
0.346701
0.34736
0.344134
0.347959
0.356728
0.334623
0.324735
0.347453
0.349174
1.32119
0.374557
1.09763
0.350561
2.53747
0.343554
1.471
0.35745
1.12708
0.374263
2.42973
0.325407
1.35863
0.345165
0.335135
0.356549
0.347943
0.328226
0.33427
0.348545
0.34726
0.333909
0.347614
0.346832
0.334209
0.334179
0.347364
0.347074
0.352117
0.365628
0.366343
0.351208
0.351868
0.365447
0.366111
0.36132
0.366684
0.376033
0.351962
0.353661
0.366056
0.36748
1.08635
0.395181
1.12365
0.351106
1.68021
0.36245
3.0556
0.379145
1.15798
0.394746
1.57625
0.351474
2.98595
0.362082
0.352438
0.375864
0.36667
0.352951
0.351863
0.367013
0.366057
0.351348
0.366336
0.3656
0.351872
0.351587
0.366113
0.365839
0.371342
0.386473
0.387176
0.370448
0.371112
0.386273
0.386663
0.381234
0.387557
0.397747
0.371064
0.372512
0.386793
0.387739
1.18324
0.418668
1.77154
0.36431
3.65182
0.367247
5.54594
0.400236
1.82811
0.417873
3.58792
0.364834
5.50574
0.369543
0.371677
0.397515
0.387543
0.372111
0.371065
0.387824
0.386792
0.370603
0.387168
0.386441
0.371034
0.370842
0.386658
0.386674
0.392746
0.409734
0.410405
0.391839
0.392306
0.409487
0.40983
0.40355
0.410819
0.421761
0.392445
0.393192
0.409976
0.410621
2.16048
0.44528
4.15627
0.367965
6.15286
0.383435
7.13857
0.424202
4.19287
0.44434
6.11693
0.370843
7.05963
0.387692
0.393124
0.421486
0.41081
0.393361
0.392445
0.410885
0.410051
0.392017
0.4104
0.409705
0.3923
0.392242
0.409921
0.4099
0.416628
0.435816
0.436411
0.415705
0.416135
0.435388
0.436099
0.42807
0.436826
0.447858
0.416257
0.417393
0.436202
0.437506
5.03882
0.473569
7.42752
0.396078
6.77068
0.439213
2.66206
0.451327
7.39773
0.472725
6.65014
0.400044
2.51282
0.438716
0.417038
0.44772
0.436825
0.41747
0.41645
0.437364
0.436211
0.415945
0.43641
0.435793
0.416329
0.416124
0.436101
0.435827
0.441744
0.465266
0.467823
0.442392
0.441202
0.464756
0.466995
0.457939
0.468033
0.484847
0.4412
0.441979
0.467017
0.467528
7.81893
0.500039
10.9283
0.442501
0.383508
0.467844
0.421251
0.468628
10.8644
0.499957
0.383835
0.442419
0.424228
0.467887
0.441926
0.484843
0.468035
0.441867
0.441191
0.467505
0.467039
0.442818
0.467827
0.465246
0.441203
0.442835
0.466968
0.465224
0.471797
0.498769
0.501568
0.472709
0.470955
0.498211
0.500536
0.489213
0.50179
0.521982
0.47098
0.471499
0.500557
0.501145
11.0848
0.540515
11.7891
0.471826
0.397966
0.501716
0.239977
0.504724
11.3469
0.540389
0.401226
0.471872
0.24118
0.501753
0.47201
0.522003
0.501792
0.471579
0.470824
0.501762
0.500597
0.473213
0.501571
0.498753
0.470796
0.473188
0.5006
0.498712
0.50612
0.537192
0.540331
0.50731
0.505049
0.536783
0.539339
0.5269
0.540571
0.565623
0.505067
0.505556
0.53936
0.540619
11.794
0.57415
19.0153
0.506326
0.242825
0.540706
0.541744
0.54572
18.2542
0.5741
0.243621
0.506365
0.541748
0.540059
0.506345
0.565677
0.540574
0.506408
0.50513
0.539915
0.539409
0.507862
0.540335
0.537182
0.505136
0.507813
0.539397
0.537204
0.545579
0.581651
0.585172
0.547236
0.544462
0.581265
0.584003
0.56811
0.585414
0.614216
0.54448
0.543216
0.58391
0.585282
19.8032
0.624213
6.63804
0.543305
0.544229
0.585369
0.585915
0.576549
4.07981
0.624507
0.544223
0.542665
0.585917
0.585337
0.545825
0.6145
0.58542
0.542513
0.544523
0.585513
0.583902
0.547684
0.585178
0.581645
0.544514
0.547696
0.583998
0.581326
0.591267
0.633654
0.637452
0.593602
0.590095
0.633434
0.636988
0.617462
0.637602
0.659802
0.589986
0.588327
0.63686
0.638684
9.96178
0.668882
10.1995
0.588464
0.588985
0.638883
0.639044
0.627811
9.71
0.669027
0.588991
0.588413
0.639043
0.63871
0.591509
0.659906
0.637607
0.588343
0.589979
0.63864
0.636828
0.59387
0.637457
0.633647
0.590095
0.593611
0.63698
0.633444
0.644609
0.695391
0.699507
0.647898
0.644144
0.695614
0.699925
0.662406
0.699508
0.703269
0.644183
0.642268
0.700202
0.704082
0.70381
0.742427
0.642453
0.642835
0.704437
0.704405
0.67129
0.742443
0.703822
0.642837
0.64236
0.704411
0.704306
0.644745
0.703284
0.699509
0.642242
0.644162
0.704031
0.70032
0.648063
0.69951
0.695383
0.64414
0.64791
0.700251
0.695632
0.708128
0.769977
0.774929
0.712932
0.708645
0.770513
0.776517
0.707112
0.774898
0.774692
0.709068
0.708552
0.776687
0.777839
0.733878
0.774662
0.77455
0.708867
0.708685
0.778915
0.779091
0.707506
0.77455
0.774662
0.70869
0.708738
0.779092
0.778896
0.708118
0.774692
0.774898
0.708506
0.708981
0.777724
0.776675
0.712677
0.774932
0.769966
0.708917
0.712943
0.776514
0.770528
0.785489
0.861717
0.867982
0.791715
0.787329
0.861954
0.870591
0.785266
0.867958
0.867876
0.787576
0.78852
0.870642
0.871043
0.785123
0.867861
0.867817
0.789616
0.789773
0.868988
0.867985
0.785237
0.867817
0.867861
0.789774
0.789628
0.867985
0.869358
0.785458
0.867875
0.867958
0.788379
0.78757
0.8711
0.870635
0.791083
0.867985
0.861703
0.787272
0.791747
0.870591
0.861983
0.888021
0.977038
0.976976
0.889305
0.890701
0.978834
0.977831
0.887937
0.976965
0.976937
0.890809
0.889139
0.97733
0.976961
0.887887
0.976929
0.976916
0.887976
0.887954
0.976956
0.976946
0.887918
0.976916
0.976929
0.887954
0.888325
0.976946
0.976954
0.887998
0.976937
0.976965
0.889189
0.890781
0.976963
0.977311
0.888001
0.976976
0.977021
0.890681
0.888989
0.977803
0.979152
1.01057
1.12618
1.12612
1.01157
1.01065
1.1263
1.12729
1.01054
1.12611
1.12611
1.0106
1.01056
1.12661
1.12611
1.01053
1.1261
1.1261
1.01056
1.01055
1.12611
1.12611
1.01054
1.1261
1.1261
1.01055
1.01056
1.12611
1.12611
1.01056
1.12611
1.12611
1.01056
1.01059
1.12611
1.12661
1.01061
1.12612
1.12615
1.01063
1.01171
1.12784
1.12618
1.17059
1.30058
1.30057
1.17116
1.17068
1.30075
1.30057
1.17059
1.30057
1.30057
1.1706
1.17059
1.30057
1.30057
1.17058
1.30057
1.30057
1.17059
1.17059
1.30057
1.30057
1.17058
1.30057
1.30057
1.17059
1.17059
1.30057
1.30057
1.17059
1.30057
1.30057
1.17059
1.1706
1.30057
1.30057
1.17063
1.30057
1.30058
1.17113
1.17104
1.30058
1.30097
0.334146
0.346745
0.347307
0.332693
0.333684
0.34576
0.346547
0.334565
0.347125
0.347172
0.333687
0.333725
0.346554
0.346604
0.531569
0.347448
0.332837
0.333739
0.333851
0.346612
0.346638
0.333993
0.328491
0.347542
0.333843
0.333748
0.346637
0.346619
0.333813
0.346999
0.346796
0.333736
0.333685
0.346611
0.346549
0.334018
0.346952
0.347076
0.333665
0.332946