/*--------------------------------*- C++ -*----------------------------------*\
| =========                 |                                                 |
| \\      /  F ield         | OpenFOAM: The Open Source CFD Toolbox           |
|  \\    /   O peration     | Version:  2206                                  |
|   \\  /    A nd           | Website:  www.openfoam.com                      |
|    \\/     M anipulation  |                                                 |
\*---------------------------------------------------------------------------*/
FoamFile
{
    version     2.0;
    format      ascii;
    arch        "LSB;label=32;scalar=64";
    class       volScalarField;
    location    "600";
    object      nut;
}
// * * * * * * * * * * * * * * * * * * * * * * * * * * * * * * * * * * * * * //

dimensions      [0 2 -1 0 0 0 0];

internalField   nonuniform List<scalar> 
187974
(
0.0422189
0.0426841
0.0426026
0.042657
0.0426576
0.0426124
0.0426811
0.0422363
0.0426208
0.0428599
0.0427916
0.0428476
0.0428484
0.0428007
0.0428559
0.0426393
0.0428296
0.0429806
0.0429258
0.0429933
0.0429941
0.0429344
0.0429753
0.0428483
0.0430391
0.0431297
0.0430845
0.0431708
0.0431716
0.0430917
0.0431236
0.0430575
0.0432966
0.0432906
0.0432582
0.0433579
0.0433588
0.0432629
0.043283
0.043314
0.0435583
0.0434698
0.0434566
0.043553
0.0435539
0.0434595
0.0434633
0.0435734
0.0438139
0.0436871
0.0436967
0.0437573
0.0437582
0.0436996
0.0436905
0.0438216
0.0440712
0.0439735
0.0439761
0.0439921
0.0439929
0.0439791
0.0439626
0.0440784
0.044323
0.0442653
0.0442622
0.0442632
0.0442639
0.0442643
0.0442507
0.0443389
0.0445729
0.0445569
0.0445498
0.0445528
0.0445529
0.0445525
0.0445365
0.0445906
0.044898
0.0448631
0.0448554
0.0448598
0.0448598
0.0448565
0.0448525
0.044907
0.045183
0.0451788
0.0451649
0.0451704
0.0451703
0.0451644
0.045159
0.0452008
0.0454897
0.0454823
0.045484
0.0454833
0.0454833
0.0454842
0.0454639
0.0455083
0.0458266
0.0458148
0.0458159
0.045817
0.0458172
0.0458168
0.0457969
0.0458454
0.0461972
0.0461855
0.0461872
0.0461878
0.046188
0.0461878
0.0461719
0.0462103
0.0466108
0.0465974
0.0465984
0.0465986
0.0465987
0.0465987
0.0465995
0.0466092
0.047062
0.0470619
0.047062
0.0470618
0.0470618
0.0470619
0.0470624
0.0470679
0.047592
0.0475893
0.0475897
0.0475898
0.0475898
0.0475897
0.0475893
0.0475917
0.0481957
0.0481927
0.0481928
0.0481929
0.0481929
0.0481928
0.0481926
0.0481957
0.0488697
0.0488679
0.048868
0.048868
0.048868
0.0488679
0.0488678
0.0488697
0.0421537
0.0428377
0.0428387
0.0428156
0.0428192
0.0428392
0.0428381
0.0421217
0.0423758
0.0430689
0.0430695
0.0430424
0.0430481
0.0430702
0.0430694
0.0423571
0.0416205
0.0431713
0.0431709
0.043179
0.0431791
0.0431697
0.0431742
0.0427714
0.0416998
0.04334
0.0433278
0.0433205
0.0433205
0.043312
0.0433412
0.0430699
0.0416643
0.0435009
0.043479
0.0434435
0.0434406
0.0434452
0.0435056
0.0433398
0.041675
0.043647
0.043644
0.0435908
0.0435854
0.0435978
0.0436606
0.0435561
0.0420838
0.0438292
0.0438525
0.043784
0.0437784
0.0438016
0.0438513
0.043798
0.0425791
0.0440779
0.0440832
0.0440147
0.0440107
0.044039
0.0440902
0.0440544
0.0432116
0.0443215
0.044312
0.0442802
0.0442812
0.0442778
0.0443232
0.0442873
0.0438299
0.0445585
0.0445718
0.0445697
0.0445685
0.0445681
0.0445658
0.0445346
0.0444156
0.0448368
0.0448344
0.0448344
0.0448344
0.0448341
0.0448322
0.0448251
0.0449408
0.0451106
0.0451093
0.0451091
0.0451093
0.0451089
0.0451106
0.0450959
0.0454247
0.0454089
0.0454079
0.0454075
0.0454074
0.0454074
0.0454084
0.0453933
0.0457344
0.0457325
0.045733
0.0457343
0.0457346
0.0457343
0.0457327
0.0457153
0.0460898
0.0460905
0.0460929
0.0460962
0.0460976
0.0460971
0.0460944
0.0460732
0.0464826
0.0464863
0.04649
0.0464912
0.0464913
0.0464909
0.0464895
0.0464713
0.0469233
0.0469286
0.0469313
0.0469317
0.0469316
0.0469314
0.04693
0.0469156
0.0474252
0.0474299
0.0474315
0.0474322
0.0474321
0.0474317
0.0474305
0.047427
0.0480055
0.0480076
0.0480064
0.0480065
0.0480065
0.0480062
0.0480088
0.0480041
0.0488775
0.0488756
0.0488747
0.0488747
0.0488747
0.0488747
0.0488761
0.0488769
0.0409884
0.0427928
0.043013
0.0968572
0.0960614
0.0429076
0.04281
0.0409165
0.0415126
0.0430357
0.0430248
0.0351924
0.0368001
0.0430147
0.0430407
0.0414634
0.0415239
0.0431831
0.0431919
0.0427947
0.0416167
0.043208
0.0431879
0.0430325
0.0414957
0.0433247
0.0433328
0.0433537
0.0411191
0.043342
0.0433323
0.04297
0.0415337
0.0435011
0.0435078
0.0435133
0.0434341
0.0435111
0.0435077
0.0431216
0.0417541
0.0436879
0.0436932
0.0436951
0.043698
0.0436944
0.0436931
0.0432935
0.0424151
0.0438852
0.0438895
0.0438917
0.0438952
0.0438908
0.0438893
0.0434857
0.0429395
0.0440941
0.0440969
0.0440997
0.0441054
0.0440985
0.0440967
0.0439079
0.043491
0.0443146
0.0443167
0.0443193
0.0443193
0.0443183
0.0443165
0.0443168
0.043981
0.0445601
0.0445511
0.0445527
0.0445534
0.0445519
0.0445516
0.0445735
0.0443633
0.04481
0.0448041
0.0448024
0.0448027
0.0448019
0.0448054
0.0448343
0.0448747
0.0450793
0.0450753
0.0450732
0.0450726
0.0450729
0.0450762
0.0451109
0.0453604
0.0453733
0.0453722
0.0453678
0.0453673
0.0453677
0.0453729
0.0454086
0.0457318
0.0456934
0.0456915
0.0456915
0.0456913
0.0456911
0.0456921
0.0457323
0.0460895
0.0460465
0.0460484
0.0460535
0.0460561
0.0460552
0.0460489
0.0460883
0.046483
0.0464362
0.0464425
0.0464462
0.046446
0.0464444
0.0464412
0.0464818
0.0469243
0.0468724
0.0468779
0.0468818
0.0468814
0.0468797
0.0468752
0.046922
0.0474296
0.0473666
0.0473691
0.0473639
0.0473606
0.0473656
0.0473658
0.0474261
0.0480065
0.0479268
0.0479167
0.0479116
0.0479116
0.0479116
0.0479234
0.0480005
0.0488747
0.0486679
0.0486677
0.0486677
0.0486677
0.0486677
0.0486677
0.0488746
0.0404676
0.0427922
0.0433818
0.136904
0.135547
0.0433267
0.0428613
0.0404162
0.0410254
0.0430603
0.0431931
0.111702
0.254806
0.0435338
0.0430585
0.0410395
0.0397329
0.0432084
0.0433588
0.15088
0.279877
0.0425914
0.0432069
0.0430828
0.0404751
0.0433372
0.0434012
0.125844
0.345833
0.0372521
0.0433535
0.0429987
0.0410852
0.0435161
0.0435588
0.095229
0.372906
0.0383972
0.0435236
0.0432053
0.0416801
0.0437028
0.0437242
0.0423537
0.173597
0.0437157
0.0437051
0.0434387
0.0422554
0.0438991
0.043916
0.0442991
0.170152
0.0440824
0.0439006
0.0438317
0.0428151
0.0441064
0.0441216
0.0439844
0.261406
0.0443197
0.0441087
0.0440649
0.0433627
0.0443267
0.044316
0.0448663
0.355729
0.0445331
0.0443143
0.0443033
0.0438936
0.0445619
0.0445484
0.0447398
0.0435906
0.044672
0.0445485
0.0445556
0.0444015
0.0448137
0.0447965
0.0449208
0.0419987
0.0448841
0.0447947
0.0448263
0.0449076
0.0450843
0.0450699
0.0451291
0.0349851
0.0451171
0.0450684
0.0451129
0.0453853
0.0453758
0.0453599
0.0454065
0.0456073
0.0453969
0.0453599
0.0454099
0.0457331
0.0456944
0.0456756
0.0456978
0.0458304
0.0456928
0.0456758
0.0457325
0.0460894
0.0460453
0.0460238
0.0460289
0.0460487
0.0460282
0.0460244
0.0460877
0.0464819
0.0464326
0.0464053
0.0464219
0.0464239
0.046421
0.0464116
0.04648
0.0469219
0.0468633
0.046869
0.0468675
0.0468618
0.0468739
0.0468725
0.0469182
0.0474198
0.0473502
0.0473552
0.0473496
0.0473495
0.0473496
0.0473563
0.0474176
0.0479971
0.0479126
0.047911
0.047911
0.047911
0.047911
0.047911
0.0479938
0.0488737
0.0486678
0.0486677
0.0486677
0.0486677
0.0486677
0.0486677
0.0488737
0.0404276
0.0428283
0.0430686
0.185639
0.180625
0.04306
0.0427206
0.0405273
0.0410092
0.0430175
0.0431899
0.0643602
0.165357
0.0437033
0.0430852
0.0409928
0.0398753
0.0432042
0.0433179
0.079362
0.152998
0.0437172
0.0432143
0.0433225
0.0405741
0.0433487
0.0433942
0.0451984
0.0872716
0.0441512
0.043364
0.0432139
0.0411538
0.0435226
0.0435641
0.0457778
0.0657382
0.0442813
0.0435373
0.0433972
0.0417256
0.0437073
0.0437492
0.0459782
0.0639853
0.0444674
0.0437229
0.0436044
0.0422868
0.0439025
0.0439466
0.0462289
0.095696
0.0446656
0.0439197
0.0438238
0.0428382
0.0441092
0.044153
0.0464778
0.174226
0.0448623
0.0441268
0.0440532
0.0433802
0.044329
0.0443486
0.0460252
0.23267
0.0453333
0.0443378
0.044293
0.0439065
0.0445639
0.0445813
0.0464717
0.27252
0.0455798
0.0445696
0.044547
0.0444108
0.0448155
0.0448315
0.0469062
0.204627
0.0459169
0.0448202
0.0448185
0.0448983
0.045086
0.0451001
0.0466356
0.244086
0.0462321
0.0450892
0.0451083
0.0453604
0.0453784
0.0453863
0.0470062
0.0512128
0.0465824
0.0453769
0.0454085
0.045732
0.045696
0.0456906
0.0468046
0.0464626
0.045685
0.0457324
0.0460887
0.0460443
0.046024
0.0460972
0.0307887
0.0460804
0.0460227
0.0460864
0.0464814
0.0464304
0.0464038
0.0464044
0.0464057
0.0464043
0.0464038
0.0464787
0.0469208
0.046862
0.046862
0.0468617
0.0468616
0.0468618
0.0468621
0.0469179
0.0474194
0.04735
0.0473496
0.0473495
0.0473495
0.0473495
0.0473496
0.0474162
0.0479967
0.0479113
0.047911
0.047911
0.0479109
0.047911
0.047911
0.0479934
0.0488737
0.0486678
0.0486677
0.0486677
0.0486677
0.0486677
0.0486677
0.0488737
0.0405839
0.0428059
0.0429282
0.0823922
0.0791384
0.0428994
0.0427615
0.0405974
0.040976
0.0429767
0.0430681
0.0464442
0.14767
0.042614
0.0430512
0.0408317
0.0400104
0.0431985
0.0432141
0.045998
0.0969836
0.0432177
0.0431901
0.0432573
0.0405485
0.0433259
0.0433443
0.0431898
0.0614592
0.0434268
0.0433372
0.0431432
0.0411956
0.0435037
0.04352
0.0435849
0.0432999
0.0435423
0.0435145
0.0434609
0.0417858
0.0436908
0.0437067
0.0437627
0.0609079
0.0437343
0.0437022
0.0436691
0.0423717
0.0438873
0.0439016
0.0439996
0.0918979
0.0439409
0.0438984
0.0438766
0.0429579
0.0440968
0.0441089
0.0441913
0.0703902
0.0441447
0.0441076
0.0440857
0.0436049
0.0443167
0.0443143
0.0443661
0.0385349
0.0443511
0.0443128
0.0443187
0.0439673
0.0445538
0.0445461
0.044576
0.0444373
0.0445697
0.0445415
0.044563
0.0445377
0.0448075
0.0447958
0.0448252
0.0416977
0.0448211
0.0447955
0.0448244
0.0448961
0.0450818
0.0450654
0.0450743
0.0451304
0.0450712
0.0450651
0.0451148
0.0453592
0.0453749
0.0453562
0.0453635
0.0454023
0.0453604
0.0453555
0.0454086
0.0457318
0.0456938
0.0456743
0.0456762
0.0457042
0.0456746
0.0456732
0.045732
0.0460894
0.0460447
0.0460244
0.0460268
0.0460312
0.0460259
0.0460258
0.046087
0.0464829
0.0464337
0.0464131
0.0464255
0.0464244
0.0464223
0.0464116
0.0464813
0.0469256
0.046867
0.0468729
0.0468731
0.0468645
0.0468772
0.0468726
0.0469235
0.0474211
0.047358
0.047351
0.0473496
0.0473496
0.0473496
0.0473549
0.0474194
0.0479976
0.0479164
0.0479126
0.047911
0.047911
0.047911
0.0479187
0.047996
0.048876
0.0486696
0.0486677
0.0486677
0.0486677
0.0486677
0.0486677
0.0488761
0.0408422
0.0428047
0.0427954
0.042313
0.0423094
0.0428101
0.0428158
0.0403528
0.0413022
0.0430499
0.0430405
0.0427751
0.0428285
0.0430581
0.0430568
0.0409695
0.0396714
0.0431878
0.0431856
0.0432157
0.0431015
0.0431807
0.0431797
0.0430246
0.0402198
0.0433508
0.0433513
0.0433513
0.0433418
0.0433489
0.0433479
0.0430719
0.0410876
0.043528
0.0435247
0.0435262
0.0435257
0.043526
0.0435249
0.0432885
0.0420964
0.0437141
0.0437119
0.043713
0.0437131
0.043713
0.0437113
0.0435743
0.0430085
0.0439102
0.0439092
0.0439102
0.0439104
0.0439104
0.0439088
0.0438547
0.0434414
0.0441195
0.0441182
0.044119
0.0441192
0.0441196
0.0441181
0.0440979
0.0439689
0.0443426
0.0443405
0.0443412
0.0443411
0.0443418
0.0443406
0.0443258
0.044534
0.0445794
0.0445777
0.0445783
0.0445781
0.0445786
0.0445776
0.0445786
0.0448492
0.0448346
0.0448324
0.044832
0.0448317
0.0448322
0.0448326
0.044839
0.0451083
0.0451101
0.0451075
0.0451064
0.045106
0.0451072
0.0451088
0.0451122
0.0454086
0.0454086
0.0454064
0.0454054
0.0454048
0.0454064
0.0454066
0.0454089
0.0457317
0.0457321
0.0457311
0.0457329
0.0457324
0.0457329
0.0457304
0.0457325
0.0460887
0.0460918
0.0460948
0.0460984
0.046098
0.0460978
0.0460917
0.0460894
0.0464852
0.0464898
0.0464902
0.0464932
0.0464931
0.0464924
0.0464887
0.0464854
0.0469278
0.0469312
0.046932
0.046935
0.0469352
0.0469345
0.0469305
0.0469272
0.047427
0.0474316
0.0474343
0.0474343
0.0474349
0.047435
0.0474318
0.0474259
0.0480038
0.0480114
0.0480117
0.0480096
0.0480099
0.0480097
0.0480122
0.0480082
0.0488791
0.0488789
0.0488782
0.0488782
0.0488782
0.0488782
0.0488791
0.0488783
0.0418817
0.0428073
0.042821
0.0428193
0.0428243
0.0428201
0.0428163
0.0423662
0.042621
0.0430504
0.0430606
0.0430612
0.0430607
0.0430623
0.0430504
0.0427468
0.0428287
0.0431938
0.0432043
0.0432041
0.0432046
0.0432053
0.0431944
0.0429262
0.0431591
0.0433686
0.0433784
0.0433788
0.043379
0.043379
0.0433683
0.0431742
0.043492
0.0435471
0.0435577
0.0435582
0.0435584
0.043558
0.0435473
0.0434387
0.0436779
0.0437364
0.0437479
0.0437483
0.0437486
0.0437483
0.0437372
0.0436963
0.0439073
0.0439375
0.043949
0.0439492
0.0439497
0.0439496
0.0439378
0.0439415
0.0441594
0.0441504
0.0441624
0.0441625
0.0441631
0.0441634
0.0441511
0.0441603
0.0444001
0.0443773
0.0443901
0.0443902
0.0443905
0.0443909
0.0443784
0.044398
0.0446515
0.0446199
0.0446337
0.0446339
0.044634
0.044634
0.0446208
0.0446452
0.0449138
0.0448801
0.0448948
0.0448949
0.044895
0.0448948
0.0448806
0.0449108
0.0451986
0.0451609
0.0451761
0.0451762
0.0451763
0.045176
0.0451612
0.045194
0.045506
0.0454654
0.0454817
0.0454818
0.0454818
0.0454816
0.0454656
0.0455012
0.0458409
0.0458005
0.0458175
0.0458178
0.0458179
0.0458174
0.0458007
0.0458356
0.0462054
0.0461745
0.0461876
0.0461879
0.0461879
0.0461874
0.0461747
0.0461997
0.0466057
0.0466009
0.0465986
0.0465988
0.0465988
0.0465984
0.046601
0.046599
0.0470698
0.0470611
0.0470616
0.0470618
0.0470618
0.0470615
0.0470615
0.0470634
0.0475971
0.047589
0.0475896
0.0475898
0.0475898
0.0475893
0.0475889
0.0475915
0.0481985
0.0481928
0.0481929
0.0481929
0.0481929
0.0481924
0.0481916
0.0481947
0.0488692
0.0488678
0.0488679
0.0488679
0.0488679
0.0488678
0.0488677
0.0488696
0.0433323
0.0434561
0.0434629
0.0433404
0.043347
0.0434743
0.0434779
0.0433422
0.0434631
0.0434678
0.0433675
0.0368091
0.0434902
0.0405458
0.0410469
0.0434711
0.0431115
0.0558144
0.37264
0.0448789
0.33017
0.0433514
0.0431187
0.0434708
0.372522
0.0514306
0.329066
0.042758
0.043333
0.0434678
0.0434633
0.0371314
0.0433654
0.0408321
0.0434849
0.0433378
0.0434629
0.0434707
0.0433471
0.0433388
0.0434746
0.0434716
0.0435076
0.0436401
0.0436457
0.0435194
0.0435214
0.0436552
0.0436563
0.0435112
0.0436458
0.0436473
0.0435308
0.0420035
0.0436614
0.0437406
0.0434285
0.0436479
0.0436572
0.0425461
0.282526
0.043578
0.0784284
0.0435131
0.043657
0.0436477
0.280938
0.0412349
0.0777171
0.0435203
0.043508
0.0436472
0.043646
0.0422264
0.0435263
0.0437924
0.0436578
0.0435162
0.0436457
0.0436565
0.0435182
0.0435169
0.0436532
0.043656
0.043693
0.0438348
0.0438391
0.0436969
0.0437029
0.0438468
0.0438485
0.0436945
0.0438394
0.0438408
0.0437076
0.0438244
0.0438507
0.0439061
0.0436981
0.0438415
0.0438444
0.0437931
0.0453471
0.0439617
0.0520411
0.0436949
0.0438444
0.0438413
0.0449588
0.0439167
0.0520282
0.0439582
0.0436934
0.0438406
0.0438396
0.04381
0.0437041
0.0439025
0.0438495
0.0437045
0.0438392
0.0438527
0.0436998
0.0437046
0.0438456
0.0438494
0.0438892
0.0440409
0.0440436
0.0438972
0.0438996
0.0440526
0.0440548
0.043891
0.0440439
0.0440457
0.0439006
0.043954
0.0440561
0.0441162
0.0438952
0.0440467
0.0440517
0.0440082
0.0599548
0.0441954
0.0898607
0.0438915
0.0440518
0.0440464
0.0600071
0.0440052
0.0906483
0.0441965
0.0438896
0.0440455
0.0440441
0.0439555
0.0438995
0.0441175
0.0440549
0.0439035
0.0440437
0.0440603
0.0438955
0.0438964
0.0440509
0.0440529
0.0440965
0.0442583
0.0442601
0.0441057
0.0441078
0.044269
0.0442673
0.0440987
0.0442605
0.0442624
0.0441094
0.0441721
0.0442717
0.0443412
0.0441052
0.0442633
0.0442663
0.0442608
0.101566
0.0444651
0.137181
0.0440995
0.0442667
0.044263
0.102637
0.0442616
0.138896
0.0444694
0.0440971
0.0442622
0.0442607
0.0441734
0.0441082
0.0443423
0.0442718
0.0441135
0.0442603
0.0442753
0.0441039
0.0441075
0.0442675
0.0442692
0.0443163
0.0444948
0.0444908
0.044326
0.0443112
0.0445009
0.0445161
0.0443184
0.0444909
0.0444922
0.0443133
0.0444336
0.0445157
0.0445954
0.044319
0.0444929
0.0444935
0.0445055
0.233057
0.044637
0.0390099
0.044319
0.0444935
0.0444925
0.234658
0.0445095
0.0391759
0.0446384
0.0443169
0.044492
0.0444911
0.0444354
0.0443135
0.0445959
0.0445158
0.0443317
0.044491
0.0445063
0.0443114
0.0443259
0.0445175
0.044501
0.0445513
0.044745
0.04474
0.0445611
0.0445472
0.0447482
0.0447606
0.0445521
0.0447391
0.0447379
0.0445456
0.0446186
0.0447621
0.0448114
0.0445534
0.0447384
0.0447386
0.0446539
0.0350745
0.0448292
0.045092
0.0445523
0.0447386
0.044738
0.0349118
0.044655
0.0450944
0.0448299
0.0445513
0.0447377
0.0447394
0.0446191
0.0445457
0.0448119
0.0447622
0.0445593
0.0447403
0.0447452
0.0445475
0.0445612
0.0447608
0.0447484
0.0448051
0.0450095
0.0450066
0.0448127
0.0447929
0.0450132
0.0450315
0.0448021
0.045006
0.0450037
0.0447943
0.0448418
0.0450337
0.045079
0.0448026
0.0450034
0.0450028
0.0448589
0.0451024
0.0450854
0.045448
0.044802
0.0450028
0.0450028
0.0451044
0.0448596
0.0453536
0.0450858
0.0448044
0.0450034
0.0450062
0.0448423
0.0447944
0.0450795
0.0450339
0.0448097
0.0450068
0.0450092
0.0447931
0.044813
0.0450316
0.0450134
0.045076
0.045297
0.0452958
0.0450819
0.0450663
0.0452991
0.0453193
0.0450735
0.0452951
0.0452913
0.0450675
0.0450949
0.0453201
0.0453628
0.0450725
0.0452909
0.0452901
0.0451027
0.0457008
0.0453706
0.0455023
0.0450726
0.0452902
0.0452903
0.045545
0.045103
0.0455022
0.0453709
0.0450755
0.0452908
0.0452953
0.0450953
0.0450676
0.0453633
0.0453203
0.0450789
0.0452961
0.0452966
0.0450664
0.0450822
0.0453194
0.0452995
0.0453726
0.0456102
0.0456091
0.0453749
0.0453577
0.0456111
0.0456324
0.0453682
0.0456089
0.0456081
0.0453579
0.0453809
0.0456325
0.0456652
0.045367
0.0456078
0.0456073
0.0453886
0.0455146
0.0456692
0.0457528
0.0453671
0.0456074
0.0456071
0.0455145
0.0453888
0.0457527
0.0456696
0.0453723
0.0456076
0.0456091
0.0453814
0.045358
0.0456654
0.0456327
0.0453729
0.0456095
0.0456098
0.0453577
0.0453753
0.0456323
0.0456115
0.0456918
0.0459554
0.045956
0.0456935
0.0456738
0.0459537
0.0459778
0.0456915
0.0459564
0.045958
0.0456728
0.0456845
0.0459785
0.0460025
0.0456912
0.0459592
0.0459618
0.0456883
0.0457691
0.0460034
0.0460224
0.0456908
0.0459618
0.0459611
0.045769
0.0456887
0.0460223
0.0460039
0.0456918
0.0459609
0.0459575
0.0456847
0.045673
0.0460028
0.0459792
0.0456929
0.0459567
0.045955
0.0456737
0.0456941
0.0459785
0.045955
0.0460478
0.0463359
0.0463404
0.0460443
0.046025
0.0463321
0.0463601
0.0460518
0.0463415
0.0463435
0.046025
0.0460256
0.0463607
0.0463712
0.0460563
0.0463444
0.046344
0.0460266
0.0460427
0.0463716
0.0463747
0.0460557
0.0463446
0.0463432
0.0460427
0.0460271
0.0463746
0.0463724
0.0460505
0.0463428
0.0463418
0.0460263
0.0460261
0.0463715
0.0463607
0.046046
0.0463404
0.0463351
0.0460242
0.0460455
0.0463599
0.0463324
0.0464413
0.0467579
0.0467613
0.0464336
0.0464101
0.0467492
0.0467859
0.0464452
0.0467639
0.0467676
0.0464095
0.0464216
0.0467895
0.0467958
0.0464455
0.0467683
0.0467672
0.0464219
0.0464247
0.0467957
0.046779
0.0464449
0.0467673
0.0467673
0.0464247
0.0464228
0.046779
0.0467965
0.0464426
0.0467665
0.0467633
0.0464219
0.0464121
0.0467954
0.0467856
0.0464353
0.0467612
0.0467546
0.0464108
0.0464336
0.0467858
0.0467498
0.0468759
0.0472375
0.0472386
0.0468643
0.0468757
0.0472287
0.0472368
0.0468813
0.0472403
0.0472429
0.0468769
0.0468812
0.047238
0.0472231
0.0468812
0.047241
0.0472381
0.0468769
0.0468662
0.0472215
0.0472215
0.0468802
0.047238
0.0472397
0.0468662
0.0468771
0.0472215
0.0472216
0.0468766
0.0472401
0.0472382
0.0468783
0.0468736
0.047223
0.0472345
0.0468688
0.0472375
0.0472338
0.0468724
0.0468657
0.0472322
0.0472288
0.0473675
0.0477801
0.0477776
0.0473551
0.0473651
0.047772
0.0477635
0.0473692
0.0477744
0.0477629
0.0473632
0.0473496
0.0477622
0.0477622
0.0473607
0.0477628
0.0477628
0.0473496
0.0473496
0.0477622
0.0477622
0.0473626
0.0477628
0.0477628
0.0473496
0.0473496
0.0477622
0.0477622
0.0473654
0.0477629
0.0477748
0.0473496
0.0473616
0.0477622
0.0477622
0.047363
0.0477787
0.0477782
0.0473622
0.0473543
0.0477634
0.0477703
0.0479223
0.0483245
0.0483227
0.0479166
0.0479109
0.0483219
0.0483218
0.0479116
0.0483219
0.0483219
0.047911
0.047911
0.0483218
0.0483218
0.0479116
0.0483219
0.0483219
0.047911
0.047911
0.0483218
0.0483218
0.0479116
0.0483219
0.0483219
0.047911
0.047911
0.0483218
0.0483218
0.047917
0.0483219
0.0483219
0.047911
0.047911
0.0483218
0.0483218
0.0479251
0.0483235
0.0483247
0.0479108
0.0479156
0.0483219
0.048322
0.043357
0.0434711
0.0434878
0.0433484
0.0433643
0.0434779
0.0434917
0.0378583
0.0435226
0.0378536
0.0433985
0.0442661
0.0435217
0.0443883
0.344191
0.113409
0.379478
0.045777
0.135307
0.0459441
0.123588
0.116883
0.381253
0.104799
0.135539
0.0454884
0.122891
0.0459494
0.043386
0.0374246
0.0435049
0.0442724
0.0433943
0.0443906
0.0435207
0.0433607
0.0434803
0.043496
0.0433634
0.0433484
0.0434916
0.0434779
0.043531
0.0436552
0.0436651
0.0435225
0.0435361
0.0436603
0.0436738
0.0383664
0.0436794
0.0425802
0.0435649
0.0444345
0.0437017
0.0445528
0.372022
0.0465072
0.232392
0.0460274
0.116074
0.0462713
0.0832295
0.0887338
0.231979
0.0449481
0.115208
0.046063
0.0820497
0.0462864
0.043544
0.042933
0.0436714
0.0444317
0.0435644
0.0445479
0.0437013
0.0435415
0.0436587
0.0436746
0.0435359
0.0435225
0.0436736
0.0436602
0.0437116
0.0438491
0.0438562
0.0437075
0.0437212
0.0438528
0.0438678
0.0435858
0.0438662
0.0440756
0.0437491
0.0445909
0.0438958
0.0447066
0.175766
0.0442349
0.150287
0.0462956
0.0731907
0.0463151
0.0595078
0.0423966
0.149172
0.0442471
0.0721398
0.0463072
0.0593303
0.0463242
0.0437168
0.0440544
0.0438616
0.0445861
0.0437487
0.0447021
0.0438955
0.0437223
0.0438506
0.0438623
0.043721
0.0437074
0.0438676
0.0438527
0.0439061
0.0440535
0.0440605
0.0439026
0.0439179
0.0440563
0.0440745
0.0440769
0.0440687
0.0442548
0.043946
0.0447475
0.0441006
0.0448793
0.170019
0.044125
0.238354
0.0463354
0.0617947
0.0464494
0.0895936
0.0442843
0.237317
0.0441092
0.0618821
0.0463431
0.0900858
0.0464528
0.0439115
0.0442589
0.0440658
0.044743
0.0439458
0.0448753
0.0441006
0.0438914
0.0440551
0.0440519
0.0439178
0.0439025
0.0440743
0.0440563
0.0441135
0.0442703
0.0442741
0.0441091
0.0441279
0.0442727
0.0442908
0.0443155
0.0442815
0.0445017
0.0441551
0.0449267
0.0443175
0.0450762
0.261518
0.0435663
0.33074
0.0465051
0.10491
0.0466986
0.167891
0.0439676
0.329727
0.0435112
0.105368
0.0465083
0.167555
0.0467073
0.0441187
0.044508
0.0442828
0.0449233
0.0441551
0.0450753
0.0443177
0.0441058
0.0442745
0.0442703
0.0441279
0.0441091
0.0442908
0.0442727
0.0443144
0.0445016
0.0445194
0.044329
0.0443362
0.0445038
0.0445385
0.0445278
0.0445186
0.0446533
0.0443458
0.0453597
0.0445495
0.0455842
0.356193
0.0447392
0.143859
0.0459763
0.223504
0.0464021
0.289479
0.0448872
0.144675
0.0447414
0.223022
0.0459768
0.287411
0.0464179
0.0443158
0.0446541
0.0445185
0.0453578
0.0443462
0.0455903
0.0445499
0.0443267
0.0445194
0.0445016
0.0443364
0.044329
0.0445387
0.0445038
0.0445486
0.0447491
0.0447623
0.0445641
0.0445685
0.0447511
0.0447871
0.0446717
0.0447644
0.0448532
0.0445796
0.0456279
0.0447979
0.0459306
0.0449712
0.0448922
0.0433851
0.0464595
0.289789
0.0468394
0.295224
0.0447416
0.043555
0.0448944
0.287485
0.0464761
0.286789
0.0468526
0.0445484
0.0448543
0.0447644
0.0456346
0.0445799
0.0459373
0.0447982
0.0445619
0.0447624
0.0447491
0.0445688
0.0445641
0.0447873
0.0447511
0.0447946
0.0450148
0.0450336
0.0448157
0.0448195
0.0450167
0.0450541
0.0448828
0.0450379
0.0451
0.0448302
0.0459692
0.0450649
0.0462765
0.0419342
0.0451122
0.0312394
0.0468859
0.274682
0.046691
0.197824
0.0449233
0.0309768
0.0451131
0.261721
0.0468981
0.172466
0.0466936
0.0447965
0.0451001
0.0450381
0.0459752
0.0448306
0.0462788
0.0450652
0.0448137
0.0450338
0.0450148
0.0448197
0.0448157
0.0450543
0.0450167
0.0450683
0.0453001
0.0453211
0.0450863
0.0450888
0.0453032
0.0453401
0.0451169
0.0453221
0.0453787
0.0450996
0.046279
0.04535
0.0466503
0.0349475
0.0453889
0.0455991
0.0466875
0.187916
0.0471268
0.000301325
0.04513
0.0455988
0.0453898
0.15826
0.0466913
0.00300266
0.0471377
0.0450701
0.0453791
0.0453224
0.046282
0.0450999
0.0466593
0.0453502
0.0450843
0.0453214
0.0453001
0.045089
0.0450863
0.0453403
0.0453032
0.0453596
0.045612
0.0456344
0.0453785
0.0453772
0.0456141
0.0456457
0.0453965
0.0456353
0.0456735
0.0453868
0.0466701
0.0456523
0.0464953
0.045608
0.0456794
0.0458176
0.0471477
0.00399068
0.0468575
0.0151271
0.0454075
0.0458173
0.0456808
0.00632902
0.0471578
0.0149174
0.0468688
0.0453602
0.0456743
0.0456358
0.0466787
0.045387
0.0465023
0.0456524
0.0453758
0.0456349
0.045612
0.0453774
0.0453785
0.0456458
0.0456141
0.0456752
0.0459547
0.0459773
0.0456961
0.0456855
0.045954
0.0459784
0.045692
0.0459778
0.0460044
0.0456915
0.0464696
0.0459802
0.046078
0.0458306
0.046006
0.0460299
0.0468152
0.0164581
0.0461019
0.0278116
0.0456992
0.0460301
0.0460066
0.0162091
0.0468259
0.027813
0.0461019
0.0456762
0.0460054
0.0459795
0.0464762
0.0456916
0.046078
0.0459802
0.0456945
0.0459793
0.0459555
0.0456855
0.0456961
0.0459784
0.045954
0.046023
0.0463314
0.0463595
0.0460443
0.0460228
0.04633
0.0463537
0.0460274
0.0463593
0.0463716
0.0460241
0.0460813
0.0463538
0.0463548
0.0460485
0.0463717
0.0463741
0.0460991
0.0365461
0.0463552
0.046358
0.0460295
0.046374
0.0463726
0.036527
0.046099
0.046358
0.0463552
0.046025
0.0463707
0.046361
0.0460813
0.0460242
0.0463548
0.0463538
0.046046
0.0463606
0.0463328
0.0460228
0.0460443
0.0463537
0.04633
0.0464077
0.0467495
0.0467846
0.0464304
0.0464038
0.0467494
0.0467761
0.0464219
0.0467868
0.0467923
0.0464038
0.0464043
0.0467761
0.0467758
0.0464239
0.0467889
0.0467763
0.0464045
0.0464058
0.0467757
0.0467756
0.0464228
0.0467763
0.046792
0.0464058
0.0464045
0.0467756
0.0467757
0.0464125
0.0467929
0.0467858
0.0464043
0.0464039
0.0467758
0.0467761
0.046434
0.0467862
0.0467493
0.0464038
0.0464304
0.0467761
0.0467494
0.0468687
0.047223
0.0472274
0.0468621
0.046862
0.047222
0.0472216
0.0468723
0.0472289
0.0472216
0.046862
0.0468618
0.0472215
0.0472214
0.0468618
0.0472215
0.0472215
0.0468617
0.0468616
0.0472214
0.0472214
0.0468679
0.0472215
0.0472215
0.0468616
0.0468617
0.0472214
0.0472214
0.0468721
0.0472215
0.0472284
0.0468618
0.046862
0.0472214
0.0472215
0.046863
0.0472269
0.0472243
0.0468621
0.0468621
0.0472216
0.047222
0.047357
0.0477664
0.0477622
0.0473501
0.0473496
0.0477627
0.0477622
0.0473496
0.0477622
0.0477622
0.0473496
0.0473495
0.0477622
0.0477622
0.0473495
0.0477622
0.0477622
0.0473495
0.0473495
0.0477622
0.0477621
0.0473496
0.0477622
0.0477622
0.0473495
0.0473495
0.0477621
0.0477622
0.0473549
0.0477622
0.0477622
0.0473495
0.0473496
0.0477622
0.0477622
0.047351
0.0477623
0.0477644
0.0473496
0.0473501
0.0477622
0.0477627
0.047911
0.0483219
0.0483218
0.0479114
0.047911
0.0483219
0.0483218
0.047911
0.0483218
0.0483218
0.047911
0.047911
0.0483218
0.0483218
0.047911
0.0483218
0.0483218
0.0479109
0.0479109
0.0483218
0.0483218
0.047911
0.0483218
0.0483218
0.0479109
0.0479109
0.0483218
0.0483218
0.047911
0.0483218
0.0483218
0.047911
0.047911
0.0483218
0.0483218
0.0479115
0.0483218
0.0483219
0.047911
0.0479114
0.0483218
0.0483219
0.0433649
0.0434781
0.0434934
0.0433343
0.0433483
0.0434661
0.0434775
0.0441815
0.0435202
0.0442524
0.0433594
0.0421354
0.0434853
0.0436683
0.0880295
0.0457389
0.0687208
0.0444908
0.209542
0.0430717
0.114609
0.0452915
0.0682995
0.0457183
0.203256
0.0418862
0.108029
0.0432853
0.0433921
0.0442392
0.0435189
0.0426095
0.0433541
0.0436388
0.0434827
0.0433479
0.0434929
0.0434775
0.0433444
0.0433411
0.0434774
0.0434726
0.0435379
0.0436601
0.0436758
0.0435111
0.043522
0.0436496
0.04366
0.0442928
0.0437016
0.0444303
0.0435296
0.0436919
0.0436659
0.0437781
0.0662335
0.045925
0.0623893
0.0434433
0.120329
0.0432392
0.169147
0.0457587
0.0625804
0.0458962
0.114796
0.0435222
0.166297
0.043233
0.0435629
0.0444195
0.0437007
0.0436572
0.0435279
0.0437656
0.0436654
0.043522
0.0436754
0.0436598
0.0435219
0.0435174
0.04366
0.0436556
0.0437233
0.0438527
0.0438699
0.043697
0.0437074
0.0438431
0.0438511
0.0444786
0.0438963
0.0446288
0.0437134
0.0438286
0.0438585
0.0439289
0.0632548
0.0461609
0.0817449
0.0429571
0.187162
0.0417543
0.237511
0.0459432
0.0827597
0.0461075
0.184582
0.0430388
0.23566
0.0420174
0.0437483
0.0446153
0.0438956
0.0438173
0.043713
0.0439404
0.0438581
0.043707
0.0438695
0.0438525
0.0437066
0.0437029
0.043851
0.0438485
0.04392
0.0440563
0.0440742
0.0438932
0.0439019
0.044048
0.0440553
0.0446802
0.0441006
0.044831
0.0439095
0.0439561
0.0440625
0.044088
0.0939963
0.0464208
0.150359
0.0413048
0.251824
0.0413009
0.276844
0.0461727
0.151079
0.0463672
0.250134
0.0416361
0.274597
0.0417677
0.043946
0.0448151
0.0441003
0.0439754
0.0439091
0.044115
0.0440626
0.0439023
0.0440741
0.0440561
0.0439018
0.0438985
0.0440561
0.0440528
0.0441269
0.0442727
0.0442898
0.0441011
0.044109
0.0442648
0.0442743
0.0448775
0.0443146
0.0450083
0.0441156
0.0441782
0.0442801
0.0443715
0.172671
0.0466159
0.224349
0.0420364
0.272654
0.0444881
0.168678
0.0464241
0.224382
0.0465655
0.269563
0.0424559
0.16235
0.0444465
0.0441528
0.0450003
0.0443146
0.0441885
0.0441171
0.044364
0.0442799
0.0441089
0.0442898
0.0442725
0.0441107
0.0441057
0.0442743
0.044269
0.0443377
0.0445037
0.0445395
0.0443215
0.044315
0.0444969
0.0445163
0.0453428
0.0445513
0.0455365
0.0443164
0.0443857
0.0445181
0.0445625
0.232124
0.0464157
0.278979
0.0444228
0.0366884
0.0445795
0.0406223
0.0460068
0.27796
0.0464118
0.0367921
0.044418
0.040906
0.0445801
0.0443485
0.0455364
0.0445512
0.0443813
0.0443164
0.0445625
0.0445184
0.0443288
0.0445395
0.0445035
0.044315
0.0443254
0.0445162
0.0445003
0.0445695
0.0447509
0.0447878
0.0445574
0.0445464
0.0447454
0.0447639
0.0455787
0.0447992
0.0458776
0.0445482
0.0445922
0.0447655
0.0448104
0.275014
0.0468556
0.226411
0.0446097
0.0381903
0.0448349
0.0211137
0.0464673
0.218222
0.0468496
0.0385135
0.0446105
0.0212487
0.0448343
0.0445813
0.0458787
0.0447992
0.0445933
0.044547
0.0448166
0.0447659
0.0445637
0.0447879
0.0447508
0.0445452
0.0445607
0.0447644
0.0447481
0.0448202
0.0450165
0.0450544
0.0448103
0.044796
0.0450138
0.045032
0.0459165
0.0450655
0.0462254
0.0447977
0.0448403
0.0450336
0.0450694
0.215344
0.0466378
0.2585
0.0448665
0.0214424
0.0450742
0.0451667
0.0468988
0.24756
0.0466357
0.021553
0.0448664
0.0451663
0.045068
0.0448315
0.046228
0.0450656
0.0448488
0.0447982
0.0450633
0.045034
0.0448154