/*--------------------------------*- C++ -*----------------------------------*\
| =========                 |                                                 |
| \\      /  F ield         | OpenFOAM: The Open Source CFD Toolbox           |
|  \\    /   O peration     | Version:  2206                                  |
|   \\  /    A nd           | Website:  www.openfoam.com                      |
|    \\/     M anipulation  |                                                 |
\*---------------------------------------------------------------------------*/
FoamFile
{
    version     2.0;
    format      ascii;
    arch        "LSB;label=32;scalar=64";
    class       volScalarField;
    location    "600";
    object      omega;
}
// * * * * * * * * * * * * * * * * * * * * * * * * * * * * * * * * * * * * * //

dimensions      [0 0 -1 0 0 0 0];

internalField   nonuniform List<scalar> 
187974
(
7.5188
6.80314
6.85302
6.84716
6.84757
6.8508
6.79086
7.55094
7.88633
7.28934
7.34336
7.34337
7.34396
7.34137
7.27449
7.92511
8.11173
7.60453
7.65439
7.64862
7.64926
7.65267
7.58798
8.15408
8.35573
7.99883
8.04327
8.02488
8.02557
8.04287
7.98082
8.40295
8.67952
8.41528
8.44968
8.42171
8.42244
8.45123
8.39594
8.7314
9.04478
8.85657
8.87884
8.85741
8.85824
8.88233
8.83295
9.10022
9.44813
9.30546
9.32593
9.32544
9.32635
9.32964
9.27747
9.50177
9.90401
9.78404
9.81676
9.81767
9.81862
9.8199
9.7622
9.96462
10.4044
10.35
10.3592
10.3575
10.3583
10.3615
10.3198
10.4843
10.9622
10.9671
10.9633
10.971
10.9711
10.967
10.9313
11.054
11.7164
11.6597
11.6778
11.6869
11.6868
11.6794
11.6415
11.8037
12.508
12.4632
12.4968
12.5092
12.5088
12.496
12.4261
12.6237
13.5325
13.4599
13.4578
13.4564
13.4563
13.4584
13.4198
13.661
14.717
14.6406
14.6433
14.6478
14.6484
14.6466
14.5982
14.8563
16.1302
16.0445
16.0504
16.0531
16.054
16.053
16.0097
16.2529
17.8379
17.7505
17.7546
17.756
17.7562
17.7557
17.7596
17.8317
19.851
19.8648
19.8655
19.8649
19.8649
19.8653
19.8675
19.8907
22.5559
22.5419
22.5442
22.545
22.545
22.5442
22.542
22.55
26.0384
26.0251
26.0263
26.0265
26.0265
26.0263
26.0249
26.0399
30.6117
30.6009
30.6013
30.6017
30.6017
30.6013
30.6007
30.6119
6.72076
6.75724
6.75738
6.7571
6.75719
6.75777
6.75694
6.73034
7.20918
7.19584
7.19439
7.19498
7.19515
7.19509
7.19551
7.21967
7.51375
7.40091
7.39741
7.39618
7.39582
7.39024
7.39919
6.99774
8.32468
7.73815
7.72463
7.70587
7.70441
7.70139
7.73879
7.50169
9.08638
8.08548
8.06867
8.02206
8.01783
8.02923
8.09289
7.94339
9.90372
8.44701
8.45054
8.39277
8.38681
8.40025
8.46537
8.36495
10.4408
8.88156
8.9117
8.83389
8.82782
8.85303
8.90967
8.84976
10.9573
9.42933
9.4355
9.35137
9.34659
9.37978
9.4449
9.39939
11.282
10.0184
10.005
9.96142
9.96266
9.95815
10.0206
9.97092
11.6819
10.651
10.6714
10.6682
10.6663
10.6657
10.6628
10.6153
12.1076
11.4105
11.4054
11.4051
11.405
11.4045
11.4027
11.3894
12.5505
12.2394
12.2343
12.2336
12.2341
12.233
12.2388
12.2122
13.1779
13.2007
13.1973
13.1956
13.1954
13.1955
13.1999
13.1681
14.3256
14.3224
14.3239
14.3281
14.3291
14.3281
14.3235
14.2825
15.6605
15.6634
15.6726
15.685
15.6905
15.6888
15.6792
15.6199
17.2632
17.2778
17.2937
17.2986
17.2988
17.2973
17.2923
17.2345
19.2398
19.2597
19.2727
19.2745
19.2739
19.2729
19.2673
19.2137
21.7335
21.7538
21.7624
21.7654
21.7651
21.7634
21.758
21.7426
24.9734
24.9822
24.9755
24.9762
24.9765
24.9746
24.9901
24.9659
30.6536
30.6405
30.6334
30.6336
30.6336
30.6335
30.6436
30.65
7.71253
6.75564
6.77874
8.03615
8.01932
6.77635
6.75608
7.75815
8.11219
7.10189
7.11362
6.95677
7.09177
7.11497
7.1159
8.13069
8.74297
7.39456
7.4088
7.40689
7.51005
7.4105
7.40826
7.02375
9.42976
7.67646
7.70168
7.70305
7.66882
7.70184
7.70192
7.50636
10.2087
8.04145
8.06892
8.06907
8.06667
8.06845
8.06925
7.85733
10.9301
8.44339
8.47399
8.47463
8.47416
8.47383
8.47421
8.23319
11.1509
8.88825
8.92194
8.9231
8.92282
8.92205
8.92207
8.6649
11.3454
9.38275
9.41895
9.4204
9.41997
9.4192
9.41905
9.33369
11.6704
9.93653
9.97303
9.97475
9.97397
9.97338
9.97314
10.0428
11.9728
10.6183
10.5965
10.5974
10.5966
10.5958
10.5983
10.6917
12.1672
11.3191
11.3093
11.3015
11.2999
11.3002
11.3135
11.4164
12.698
12.1314
12.1219
12.1124
12.1081
12.1118
12.1251
12.2449
13.3146
13.0771
13.0723
13.0547
13.0509
13.0549
13.0749
13.2042
14.3346
14.1771
14.1702
14.1677
14.165
14.1666
14.1725
14.3265
15.6601
15.4881
15.4958
15.5149
15.5243
15.5217
15.4978
15.6605
17.2638
17.0619
17.0898
17.1056
17.1045
17.0979
17.0843
17.2656
19.2392
18.9955
19.0231
19.0419
19.0396
19.0319
19.0108
19.2362
21.7513
21.4267
21.4425
21.4161
21.3985
21.4248
21.4252
21.7414
24.9739
24.5211
24.4649
24.4352
24.4351
24.435
24.5049
24.9474
30.633
29.2207
29.22
29.2201
29.22
29.2201
29.2195
30.6327
8.30902
6.72009
6.83085
10.5468
10.5021
6.83081
6.7504
8.27559
8.67621
7.1074
7.14138
10.7112
15.3054
7.24936
7.12209
8.69442
10.4709
7.40427
7.43826
12.4353
16.2629
7.52477
7.41393
7.0267
10.3954
7.71477
7.71755
11.9364
16.8533
7.97789
7.70713
7.56839
10.5486
8.08011
8.08889
10.2086
16.2008
8.1363
8.07218
7.95857
10.7368
8.48443
8.49195
8.51419
14.9472
8.49237
8.47676
8.38412
10.9468
8.93311
8.93822
8.97452
21.8935
8.94982
8.92667
8.93486
11.188
9.43292
9.43485
9.48885
30.7419
9.45907
9.42686
9.44917
11.4745
9.99158
9.94488
10.007
38.8535
9.98085
9.94807
10.0204
11.8142
10.6202
10.5627
10.5912
11.4693
10.5819
10.571
10.6663
12.2134
11.3333
11.2619
11.2852
11.2695
11.279
11.2643
11.4051
12.7283
12.1478
12.0802
12.0431
11.6298
12.042
12.0831
12.2499
13.3597
13.0828
13.0089
12.9617
12.9993
12.9612
13.0158
13.2076
14.3376
14.1795
14.0976
14.0559
14.0782
14.0566
14.1036
14.3274
15.6601
15.4838
15.3957
15.3874
15.4126
15.3893
15.4009
15.6588
17.2603
17.0485
16.9332
17.0005
17.0079
16.9981
16.9609
17.2583
19.2297
18.9556
18.9821
18.9747
18.9481
19.0046
18.9984
19.2193
21.7013
21.3447
21.372
21.3424
21.3422
21.3424
21.3775
21.6982
24.919
24.4414
24.4327
24.4326
24.4325
24.4326
24.4327
24.908
30.6253
29.2201
29.22
29.22
29.22
29.22
29.22
30.6253
8.26549
6.74866
6.8444
10.9478
10.7879
6.83595
6.68383
8.34679
8.65237
7.09983
7.13597
8.4363
12.9489
7.19941
7.14122
8.64847
10.5765
7.41516
7.43531
8.83096
13.2763
7.47534
7.42611
7.13468
10.4874
7.70326
7.72359
7.89493
15.4666
7.78641
7.7203
7.68044
10.6276
8.07331
8.09041
8.28848
16.9241
8.15599
8.08759
8.06188
10.7901
8.47987
8.49596
8.71627
19.2036
8.56929
8.49293
8.47202
10.9757
8.93
8.94583
9.19465
23.3696
9.02931
8.9422
8.92803
11.2065
9.43052
9.44544
9.73142
29.1932
9.53601
9.44151
9.43732
11.4917
9.98983
9.96486
10.1894
33.5799
10.0977
9.96318
10.0087
11.829
10.6192
10.5876
10.8628
40.2267
10.7335
10.5857
10.6552
12.2249
11.3326
11.2944
11.6376
54.7059
11.4752
11.2923
11.3939
12.708
12.1477
12.1025
12.3631
76.7285
12.2895
12.1001
12.2422
13.3083
13.0872
13.0326
13.35
130.082
13.2614
13.0303
13.2057
14.3347
14.1822
14.111
14.3398
14.2586
14.11
14.3269
15.6574
15.4783
15.3858
15.3479
15.5985
15.3454
15.3865
15.6535
17.2578
17.0383
16.9266
16.9216
16.9187
16.9223
16.9273
17.2528
19.2245
18.9496
18.9492
18.9476
18.947
18.948
18.9497
19.218
21.6993
21.3438
21.3426
21.3421
21.3419
21.3422
21.3427
21.6907
24.9165
24.4337
24.4326
24.4325
24.4324
24.4325
24.4327
24.9056
30.6253
29.2201
29.22
29.22
29.22
29.22
29.22
30.6253
8.05995
6.73632
6.77112
7.55682
7.49342
6.77009
6.70817
8.12458
8.67811
7.05794
7.11807
7.39908
9.67183
7.12425
7.12198
8.61254
10.6754
7.40599
7.41115
7.56883
8.70312
7.41359
7.40883
7.08432
10.4192
7.70544
7.70842
7.70184
8.24948
7.70611
7.70371
7.65501
10.6159
8.07426
8.08215
8.07612
8.31543
8.0724
8.0765
8.09919
10.8118
8.48089
8.4908
8.48976
9.81163
8.48143
8.48679
8.51591
11.0462
8.9289
8.93619
8.93929
11.7648
8.93263
8.93547
8.96981
11.3364
9.4272
9.43436
9.43916
10.9926
9.4321
9.43806
9.47789
11.7871
9.97967
9.95469
9.95295
9.90509
9.94975
9.9535
10.0339
11.9312
10.6062
10.5718
10.5715
10.5523
10.5713
10.5625
10.6709
12.4516
11.3202
11.2741
11.2694
11.1503
11.2804
11.2761
11.3963
12.7284
12.1394
12.0798
12.035
12.0384
12.0334
12.0823
12.2506
13.311
13.0808
13.0087
12.9675
12.9579
12.9645
13.0097
13.2046
14.3364
14.1779
14.1021
14.0618
14.053
14.06
14.1005
14.3258
15.6619
15.4813
15.4009
15.3985
15.3942
15.3954
15.4084
15.6557
17.266
17.0527
16.9668
17.0189
17.0123
17.0048
16.9617
17.2636
19.2488
18.9725
19.0003
19.0013
18.9609
19.0203
18.9996
19.2438
21.7103
21.3854
21.3496
21.3426
21.3425
21.3426
21.3707
21.7074
24.9238
24.4625
24.4422
24.4326
24.4326
24.4326
24.4793
24.921
30.6432
29.2329
29.22
29.22
29.22
29.22
29.2193
30.6437
7.62676
6.73359
6.72689
6.7286
6.73737
6.74171
6.73407
7.58305
8.12033
7.18556
7.17811
7.18006
7.18547
7.19012
7.17914
8.01338
10.5201
7.4065
7.4099
7.40502
7.39924
7.40233
7.40198
7.04941
10.1976
7.74928
7.74946
7.74549
7.74343
7.74437
7.74235
7.56483
10.2045
8.12003
8.11419
8.11603
8.11575
8.1164
8.11391
7.96038
9.88149
8.52698
8.52426
8.52576
8.52541
8.5262
8.52307
8.4451
9.65158
8.9792
8.97719
8.9787
8.97839
8.97963
8.97622
8.95935
10.1035
9.4836
9.48075
9.48203
9.48209
9.4838
9.48058
9.4772
10.4046
10.0497
10.0445
10.0457
10.0452
10.0477
10.0449
10.0404
10.7256
10.6842
10.6796
10.6805
10.6795
10.6817
10.6793
10.6864
11.4036
11.4082
11.4019
11.4003
11.399
11.4011
11.4025
11.4197
12.2479
12.2401
12.2321
12.2281
12.2266
12.231
12.2363
12.2453
13.2029
13.2033
13.1962
13.1926
13.1902
13.196
13.1972
13.2027
14.3222
14.3246
14.3215
14.3274
14.3254
14.3276
14.3193
14.324
15.6593
15.6725
15.6851
15.6994
15.6976
15.6969
15.6732
15.6611
17.277
17.2979
17.3003
17.3134
17.3129
17.3099
17.2942
17.2761
19.2602
19.2773
19.2823
19.2966
19.2976
19.2949
19.2754
19.2556
21.7428
21.7675
21.7838
21.784
21.787
21.7879
21.7709
21.7351
24.9611
25.0089
25.0136
25.001
25.0028
25.0014
25.0155
24.9857
30.6669
30.6649
30.6592
30.6594
30.6594
30.6589
30.6661
30.6603
7.34973
6.73616
6.74854
6.74771
6.74831
6.75003
6.73958
7.57154
7.61831
7.18306
7.18636
7.18937
7.19002
7.18931
7.18035
7.90611
7.9059
7.46332
7.47032
7.47282
7.47339
7.47271
7.46345
8.10169
8.23616
7.81687
7.82607
7.8276
7.82814
7.82738
7.81737
8.38373
8.64307
8.19314
8.20631
8.20694
8.20742
8.20693
8.19519
8.71542
8.95095
8.61295
8.62689
8.62728
8.62801
8.62748
8.61401
9.07841
9.44561
9.07703
9.09247
9.09287
9.09397
9.09374
9.07829
9.468
9.85966
9.59548
9.61198
9.61234
9.61366
9.61425
9.59725
9.8691
10.3498
10.1766
10.1958
10.1962
10.1969
10.198
10.1795
10.3509
10.9285
10.833
10.8558
10.8563
10.8566
10.8568
10.8355
10.9251
11.7103
11.5793
11.606
11.6066
11.6066
11.6059
11.5811
11.7042
12.5811
12.4367
12.4664
12.4669
12.467
12.4661
12.4377
12.5729
13.5975
13.4298
13.4653
13.4658
13.4658
13.465
13.4306
13.5873
14.7834
14.6027
14.6454
14.6467
14.6469
14.645
14.6036
14.7711
16.1712
16.0157
16.0526
16.0542
16.0542
16.0521
16.0166
16.1564
17.7573
17.7628
17.7549
17.7559
17.7559
17.7544
17.7635
17.7373
19.8949
19.8608
19.8637
19.8645
19.8645
19.8633
19.8631
19.8733
22.5705
22.5404
22.5434
22.5445
22.5447
22.542
22.5397
22.5487
26.0516
26.0258
26.0263
26.0265
26.0266
26.0232
26.0175
26.0339
30.6079
30.6003
30.6011
30.6014
30.6014
30.6009
30.5998
30.6109
7.70141
7.94699
7.97355
7.6929
7.70541
7.96159
7.98314
7.70223
7.97376
7.97374
7.70753
7.66806
7.98371
7.94876
7.66798
7.97401
7.96688
8.89363
17.1602
8.41025
15.1428
7.70244
7.96701
7.9734
17.1811
8.72322
15.1302
8.32489
7.70204
7.97336
7.97414
7.66157
7.7084
7.95025
7.97781
7.68426
7.9741
7.95576
7.70635
7.67485
7.97711
7.94487
8.0687
8.33914
8.36855
8.05628
8.07785
8.35833
8.37688
8.06885
8.36889
8.36907
8.07803
8.05932
8.37655
8.38196
8.06653
8.36933
8.36888
8.27593
13.6695
8.383
9.36936
8.06841
8.36892
8.36862
13.6442
8.22133
9.35385
8.37232
8.06931
8.36862
8.36931
8.05898
8.07215
8.37713
8.37048
8.05056
8.36915
8.34912
8.0718
8.03928
8.37052
8.34188
8.47359
8.77264
8.80509
8.48385
8.48176
8.81553
8.815
8.47429
8.80562
8.80621
8.48153
8.48722
8.81058
8.81658
8.47411
8.8067
8.80637
8.48759
8.90472
8.82172
9.88483
8.47389
8.80642
8.80587
8.89333
8.4834
9.8896
8.82028
8.47441
8.80569
8.80606
8.48119
8.47539
8.81427
8.80891
8.45368
8.80576
8.78385
8.47536
8.44634
8.80847
8.77919
8.92135
9.25417
9.28901
8.93243
8.93415
9.30243
9.30461
8.92259
9.28968
9.29048
8.92726
8.93172
9.29811
9.30464
8.92276
9.29105
9.29065
8.93917
10.5568
9.31701
13.282
8.92225
9.29071
9.29012
10.5682
8.93916
13.336
9.31677
8.92239
9.28989
9.29016
8.93266
8.92558
9.30546
9.29591
8.89979
9.28978
9.26772
8.92496
8.90943
9.2954
9.27821
9.41825
9.79318
9.82792
9.43255
9.43452
9.84348
9.83518
9.41981
9.82868
9.82967
9.42851
9.43543
9.83625
9.84876
9.41991
9.83032
9.82958
9.44949
14.3444
9.86732
17.6988
9.41944
9.82967
9.82925
14.4151
9.44923
17.8106
9.86732
9.41944
9.82901
9.8292
9.4361
9.42617
9.84948
9.83663
9.39661
9.82876
9.80814
9.42507
9.41059
9.83549
9.84324
9.97228
10.4224
10.4331
9.99114
9.94402
10.4549
10.4874
9.97406
10.433
10.4339
9.94437
9.96441
10.4809
10.4924
9.97387
10.4347
10.4338
9.97679
28.4068
10.4984
10.8953
9.97362
10.4339
10.4334
28.4935
9.97767
10.9034
10.499
9.97357
10.4332
10.4337
9.96506
9.94456
10.4927
10.481
9.95178
10.434
10.4321
9.94413
9.99166
10.4902
10.4554
10.5973
11.1311
11.1248
10.6192
10.5719
11.1448
11.1705
10.5966
11.1222
11.1164
10.5623
10.5728
11.1695
11.1782
10.5965
11.117
11.1154
10.5779
10.4149
11.1817
11.2085
10.5961
11.1156
11.1154
10.4119
10.5784
11.209
11.1824
10.5972
11.1156
11.1231
10.5731
10.5624
11.1785
11.1696
10.6101
11.1261
11.1304
10.572
10.6198
11.1704
11.1455
11.3124
11.9169
11.9112
11.3317
11.2636
11.9297
11.9739
11.3012
11.9092
11.9002
11.2625
11.2704
11.9753
11.981
11.2998
11.8985
11.8942
11.2739
11.2937
11.9811
11.9214
11.2997
11.8944
11.8962
11.2944
11.2747
11.9207
11.9824
11.3102
11.8987
11.9098
11.2707
11.2626
11.9822
11.9754
11.3181
11.9123
11.9158
11.2635
11.3325
11.9735
11.9306
12.124
12.8267
12.8214
12.1406
12.081
12.8312
12.886
12.1138
12.8192
12.8043
12.0796
12.0324
12.8844
12.894
12.1078
12.8027
12.7974
12.0345
12.0155
12.8959
12.9211
12.1101
12.7978
12.8002
12.0217
12.0358
12.9211
12.8974
12.1224
12.8026
12.8197
12.0336
12.0794
12.8952
12.8842
12.1302
12.8227
12.8254
12.0805
12.1416
12.8854
12.8325
13.0734
13.8836
13.8789
13.0802
13.0123
13.8853
13.9522
13.0568
13.8784
13.8733
13.009
12.9553
13.9503
13.9816
13.0499
13.8721
13.868
12.9573
12.9818
13.9821
13.9916
13.0521
13.8685
13.8689
12.9818
12.9588
13.9917
13.9842
13.0728
13.8714
13.8791
12.9566
13.0088
13.9825
13.95
13.0757
13.8806
13.8822
13.0116
13.0815
13.9514
13.8868
14.1709
15.1398
15.1418
14.1766
14.0994
15.1333
15.2224
14.1683
15.1438
15.1489
14.0934
14.0538
15.2238
15.2927
14.1645
15.1535
15.1619
14.0542
14.0682
15.2927
15.3233
14.165
15.1621
15.1603
14.0682
14.0564
15.3233
15.296
14.1708
15.1599
15.1476
14.0548
14.0934
15.2941
15.2256
14.1754
15.1448
15.1386
14.0985
14.1785
15.2248
15.1382
15.4929
16.6438
16.6626
15.4799
15.4037
16.6295
16.7458
15.5084
16.668
16.676
15.4026
15.3847
16.7478
16.789
15.5249
16.6798
16.6778
15.3852
15.4124
16.7903
16.8025
15.5232
16.6803
16.6747
15.4124
15.3882
16.8019
16.7945
15.5038
16.6731
16.6689
15.3874
15.4061
16.7901
16.7475
15.4862
16.663
16.6406
15.4001
15.4847
16.7448
16.6303
17.0843
18.4694
18.4865
17.0525
16.9548
18.432
18.6004
17.1015
18.499
18.5157
16.952
17.0006
18.6172
18.6456
17.1028
18.5189
18.5141
17.0016
17.0132
18.6456
18.5694
17.1002
18.5143
18.5145
17.0131
17.006
18.5694
18.6489
17.0901
18.5106
18.4961
17.0018
16.9625
18.644
18.5996
17.0583
18.4867
18.4551
16.9574
17.0526
18.6
18.4348
19.0136
20.7657
20.7736
18.9602
19.0131
20.7242
20.7657
19.0393
20.7825
20.7961
19.0184
19.039
20.7723
20.6971
19.039
20.7866
20.7719
19.0191
18.9692
20.6889
20.6887
19.0345
20.7713
20.78
18.9691
19.02
20.6887
20.6891
19.0175
20.7817
20.7716
19.0252
19.0033
20.6966
20.7545
18.9792
20.768
20.7478
18.9977
18.9666
20.7426
20.7247
21.4336
23.6751
23.6632
21.3699
21.423
23.632
23.5848
21.4438
23.6454
23.5801
21.4131
21.3428
23.5778
23.5775
21.3989
23.58
23.58
21.3426
21.3425
23.5775
23.5775
21.4092
23.58
23.58
21.3425
21.3425
23.5775
23.5775
21.4232
23.5801
23.6479
21.3427
21.4051
23.5775
23.5778
21.4086
23.6701
23.6651
21.4077
21.3661
23.5843
23.6226
24.4979
26.9323
26.9205
24.4648
24.4323
26.915
26.9148
24.435
26.915
26.9149
24.4327
24.4327
26.9148
26.9148
24.4351
26.9149
26.9149
24.4326
24.4326
26.9148
26.9148
24.4352
26.9149
26.9149
24.4326
24.4326
26.9148
26.9148
24.4668
26.9149
26.915
24.4327
24.4327
26.9148
26.9148
24.5122
26.926
26.9331
24.4316
24.4589
26.9149
26.9154
7.71228
7.98506
7.99109
7.70259
7.71628
7.97675
7.98629
8.06947
7.99473
8.1676
7.72336
7.7999
7.99103
8.06793
16.8295
10.9918
16.6825
7.91706
15.7804
8.20877
16.7058
11.5684
16.695
10.6705
15.9194
7.90884
16.7368
8.21035
7.71181
8.11016
7.9811
7.79285
7.7184
8.06806
7.99007
7.67613
7.97771
7.95119
7.71515
7.70289
7.98679
7.97692
8.0858
8.37948
8.38479
8.07224
8.08131
8.37288
8.38116
8.17303
8.38702
8.38819
8.08438
8.16425
8.38415
8.46764
16.2586
8.59078
14.5989
8.30998
16.9801
8.62751
17.6409
9.99183
14.5574
8.53177
16.9882
8.31225
17.6421
8.62872
8.07518
8.37952
8.37443
8.16392
8.08482
8.46688
8.38439
8.04547
8.37208
8.34243
8.08171
8.07239
8.38135
8.37294
8.48977
8.81639
8.82189
8.47826
8.48643
8.81135
8.81895
8.49772
8.82139
8.83471
8.48954
8.5743
8.82255
8.91221
14.9559
8.85196
19.771
8.73626
17.8968
9.07833
19.3657
8.49843
19.7191
8.85041
17.9229
8.7372
19.5082
9.07868
8.47915
8.8306
8.81291
8.57346
8.4896
8.91119
8.82247
8.44629
8.81004
8.78522
8.4865
8.47828
8.81892
8.81128
8.93861
9.30279
9.30812
8.92841
8.93572
9.29892
9.31005
8.94888
9.30476
9.32571
8.93952
9.03114
9.31057
9.40751
21.8713
9.35724
28.4795
9.20003
20.2474
9.59013
24.545
8.97597
28.4492
9.35995
20.4207
9.20016
24.7076
9.58993
8.92975
9.3269
9.29915
9.03007
8.93943
9.40645
9.31048
8.93029
9.2957
9.29903
8.93567
8.92833
9.30992
9.29882
9.43809
9.84583
9.8427
9.4293
9.44175
9.84283
9.85382
9.45786
9.84014
9.87314
9.44414
9.53967
9.85797
9.95801
30.7286
9.88532
37.51
9.72865
26.4763
10.1694
33.2213
9.49142
37.4999
9.88723
26.5949
9.72854
33.1651
10.1703
9.42907
9.87454
9.84315
9.53873
9.44403
9.95773
9.85795
9.43109
9.84389
9.84569
9.44165
9.42921
9.85375
9.84276
9.94715
10.4557
10.4905
9.98877
9.96295
10.4535
10.5034
9.97931
10.4815
10.5015
9.96451
10.1027
10.5052
10.6542
38.8733
10.5138
15.6893
10.1838
34.6232
10.7696
38.1737
10.0091
15.7481
10.5147
34.496
10.1835
38.3046
10.7719
9.94531
10.5023
10.4819
10.1022
9.96457
10.655
10.5053
9.99143
10.4916
10.4556
9.963
9.98871
10.5034
10.4534
10.5699
11.1462
11.1697
10.6181
10.5854
11.1446
11.1986
10.5812
11.1691
11.1858
10.5873
10.7401
11.2006
11.3858
11.5125
11.193
11.2019
10.8592
38.9287
11.531
48.7466
10.592
11.2062
11.1941
39.0959
10.8616
48.9962
11.5332
10.5631
11.1867
11.1696
10.7411
10.5874
11.387
11.2007
10.62
11.1711
11.146
10.5855
10.6181
11.1987
11.1446
11.2628
11.9337
11.9746
11.3319
11.2921
11.9329
11.9929
11.278
11.9806
11.9877
11.2942
11.4836
11.9953
12.2465
11.2663
11.9901
11.4157
11.6325
51.2376
12.322
74.9055
11.2864
11.4072
11.9914
51.3839
11.6346
75.164
12.3223
11.2624
11.9889
11.9816
11.4846
11.2943
12.2468
11.9953
11.3331
11.9765
11.9335
11.2922
11.3318
11.9929
11.9328
12.081
12.8339
12.8863
12.1475
12.1001
12.8392
12.9066
12.0408
12.8841
12.8983
12.1025
12.2991
12.9092
13.216
11.6287
12.9004
12.9397
12.374
76.8612
13.3156
116.188
12.0445
12.9398
12.9023
77.2037
12.3745
115.711
13.3178
12.0813
12.8998
12.8856
12.2995
12.1026
13.2178
12.9092
12.1476
12.8889
12.8335
12.1002
12.1475
12.9066
12.8391
13.0132
13.888
13.9549
13.0873
13.0304
13.8918
13.9656
12.9596
13.9539
13.9807
13.0329
13.2808
13.9671
14.1991
12.9993
13.9825
14.0021
13.3815
122.568
14.2852
227.931
12.9637
14.0022
13.9851
120.942
13.3835
223.234
14.2877
13.0104
13.9828
13.9561
13.2825
13.033
14.2007
13.9671
13.0825
13.9583
13.8877
13.0304
13.0873
13.9656
13.8918
14.1
15.1368
15.2183
14.1824
14.11
15.1325
15.2138
14.0546
15.2183
15.2932
14.1112
14.2602
15.2133
15.2633
14.0782
15.2944
15.3244
14.3426
240.899
15.2673
15.6024
14.0586
15.3247
15.2978
236.039
14.3451
15.6024
15.2673
14.0999
15.298
15.2251
14.2617
14.1113
15.2632
15.2133
14.1795
15.2273
15.1396
14.1101
14.1824
15.2138
15.1325
15.3938
16.626
16.7423
15.4784
15.3864
16.6196
16.7176
15.3855
16.741
16.7899
15.3858
15.3454
16.717
16.7121
15.4123
16.7891
16.7972
15.348
15.5636
16.7113
16.7079
15.3903
16.7969
16.7929
15.5638
15.348
16.7079
16.7113
15.4004
16.7866
16.7486
15.3453
15.3858
16.7121
16.717
15.4862
16.748
16.6321
15.3864
15.4784
16.7176
16.6196
16.944
18.4335
18.5942
17.0385
16.9271
18.433
18.5559
17.0016
18.6044
18.6295
16.9265
16.9222
18.5556
18.5539
17.008
18.6141
18.5564
16.9215
16.9185
18.5536
18.5527
17.0043
18.5564
18.6277
16.9185
16.9215
18.5527
18.5536
16.9639
18.6322
18.6002
16.9222
16.9265
18.5539
18.5556
17.0542
18.6021
18.4327
16.9271
17.0385
18.5559
18.433
18.9808
20.6958
20.7183
18.9498
18.9496
20.6907
20.6892
18.9971
20.7259
20.689
18.9492
18.948
20.689
20.6884
18.9481
20.6886
20.6885
18.9476
18.9469
20.6883
20.688
18.9768
20.6885
20.6887
18.9469
18.9476
20.688
20.6883
18.9964
20.6889
20.7234
18.948
18.9492
20.6884
20.689
18.9541
20.7156
20.7021
18.9496
18.9498
20.6892
20.6907
21.381
23.6001
23.5776
21.3441
21.3427
23.5791
23.5776
21.3424
23.5776
23.5775
21.3426
21.3422
23.5775
23.5773
21.3422
23.5774
23.5774
21.342
21.3418
23.5773
23.5772
21.3424
23.5774
23.5774
21.3418
21.342
23.5772
23.5773
21.3699
23.5775
23.5776
21.3422
21.3426
23.5773
23.5775
21.3489
23.5778
23.5892
21.3427
21.3441
23.5776
23.5791
24.4327
26.9149
26.9148
24.4341
24.4327
26.9149
26.9148
24.4326
26.9148
26.9148
24.4326
24.4325
26.9148
26.9147
24.4325
26.9147
26.9147
24.4325
24.4324
26.9147
26.9147
24.4326
26.9147
26.9147
24.4324
24.4325
26.9147
26.9147
24.4327
26.9148
26.9148
24.4325
24.4326
26.9147
26.9148
24.4347
26.9148
26.9149
24.4327
24.4341
26.9148
26.9149
7.72032
7.97767
7.99244
7.70366
7.7167
7.97635
7.98942
7.78908
7.99533
8.0612
7.71742
7.70695
7.99012
7.99606
15.0085
8.18902
15.9723
7.87939
12.1096
7.97632
12.8349
7.89221
16.5021
8.18628
11.9541
7.76884
12.5765
7.97418
7.72342
8.05957
7.99521
7.70312
7.71023
7.98705
7.98616
7.703
7.99244
7.97728
7.71055
7.71046
7.98954
7.98374
8.08761
8.37441
8.38777
8.07169
8.08482
8.37229
8.38551
8.15754
8.39062
8.46344
8.08559
8.09444
8.38311
8.39415
16.4018
8.60491
18.0103
8.08193
13.9635
8.38246
18.0648
8.28575
18.5038
8.60085
13.7309
8.07574
17.9556
8.37512
8.09031
8.46168
8.39048
8.0846
8.08362
8.38588
8.38323
8.07289
8.3877
8.37383
8.08494
8.07921
8.38555
8.38011
8.49301
8.813
8.82556
8.47764
8.49082
8.81034
8.81764
8.57117
8.82892
8.91233
8.48858
8.4993
8.8191
8.82653
18.706
9.06975
21.6716
8.48079
19.5115
8.79542
23.3503
8.71154
22.0894
9.063
19.4381
8.47686
23.3631
8.795
8.4958
8.90983
8.82872
8.49233
8.48868
8.82614
8.81916
8.47926
8.82544
8.81231
8.4892
8.48554
8.81755
8.8184
8.94231
9.30023
9.31168
8.9271
8.93596
9.29639
9.30261
9.03197
9.3155
9.4078
8.93758
8.94512
9.30442
9.31367
22.9847
9.59224
27.6423
8.90854
24.4331
9.28393
25.7855
9.18731
27.7528
9.58306
24.4546
8.90676
25.7091
9.28212
8.94562
9.40501
9.31536
8.94503
8.93767
9.31395
9.30609
8.92931
9.31159
9.29962
8.93586
8.93521
9.30454
9.30475
9.44159
9.8439
9.85353
9.42618
9.43425
9.83598
9.84993
9.53863
9.85738
9.95056
9.4356
9.44794
9.85096
9.86007
29.1816
10.159
33.1069
9.42227
24.8325
9.8726
15.7819
9.72183
32.9694
10.1518
24.67
9.42258
15.4777
9.87067
9.44533
9.94926
9.85737
9.44746
9.43965
9.85854
9.8512
9.42995
9.85352
9.84343
9.43827
9.43469
9.84998
9.84497
9.96316
10.4545
10.5036
9.98143
9.95604
10.4447
10.4904
10.0995
10.5055
10.6474
9.95568
9.95769
10.4905
10.4915
33.6843
10.773
39.1725
9.96113
10.4531
10.4946
10.3699
10.1861
39.0863
10.7722
10.4325
9.96034
10.3708
10.4954
9.96486
10.6474
10.5055
9.95616
9.95548
10.491
10.4909
9.98938
10.5036
10.4541
9.95607
9.99054
10.4898
10.4544
10.5856
11.1454
11.1988
10.609
10.5722
11.1344
11.1817
10.7334
11.2009
11.3777
10.5724
10.5736
11.1817
11.1837
40.3064
11.5358
52.0695
10.5768
10.4206
11.1903
11.3659
10.8619
51.9968
11.5346
10.4178
10.5776
11.3503
11.1913
10.5876
11.3779
11.2009
10.5751
10.5692
11.1959
11.1825
10.6188
11.1988
11.1451
10.569
10.6189
11.183
11.1449
11.2922
11.9332
11.9928
11.3213
11.2744
11.9249
11.9768
11.4752
11.9952
12.2362
11.2744
11.2746
11.9768
11.9952
54.7682
12.3108
73.56
11.2852
11.3246
11.9959
11.9943
11.6361
73.7364
12.3103
11.3033
11.2861
11.9945
11.9832
11.2944
12.2367
11.9953
11.2915
11.2757
11.9813
11.9778
11.3323
11.9929
11.933
11.2762
11.3319
11.978
11.934
12.1
12.8391
12.9064
12.1383
12.0815
12.8316
12.8865
12.289
12.9089
13.1943
12.0814
12.0484
12.8842
12.906
76.3781
13.2847
123.998
12.0492
12.0469
12.907
12.9
12.3629
122.28
13.2874
12.0471
12.0365
12.9
12.9059
12.1025
13.197
12.909
12.0344
12.0823
12.9101
12.8841
12.1475
12.9065
12.839
12.0825
12.1483
12.8864
12.8329
13.0302
13.8917
13.9654
13.0821
13.0101
13.8875
13.9586
13.2587
13.9668
14.1955
13.0076
12.9678
13.9558
13.988
132.338
14.2805
293.345
12.9698
12.9623
13.9916
13.9807
13.3526
288.145
14.2818
12.9624
12.9683
13.9806
13.9879
13.0327
14.1965
13.9668
12.9677
13.0074
13.987
13.9551
13.0871
13.9655
13.8915
13.0101
13.0822
13.9585
13.8877
14.1099
15.1323
15.2139
14.179
14.1029
15.137
15.2231
14.2578
15.2133
15.2631
14.1034
14.0604
15.2285
15.3048
15.2671
15.7641
14.0637
14.0581
15.3119
15.3086
14.3409
15.7645
15.2672
14.058
14.0617
15.3087
15.3092
14.111
15.2633
15.2133
14.0598
14.103
15.3038
15.2309
14.182
15.2139
15.1322
14.1028
14.1792
15.2296
15.1373
15.3865
16.6194
16.7177
15.4833
15.3975
16.6301
16.7494
15.3453
16.7171
16.7122
15.4059
15.3943
16.7527
16.7754
15.5984
16.7115
16.7081
15.4007
15.3947
16.7968
16.8
15.348
16.7081
16.7115
15.3948
15.398
16.8001
16.7964
15.3858
16.7122
16.7171
15.3934
15.4041
16.7731
16.7525
15.4781
16.7178
16.6192
15.403
15.4835
16.7493
16.6304
16.9272
18.4327
18.5561
17.0506
16.9638
18.4374
18.6074
16.9223
18.5556
18.5539
16.9687
16.9873
18.6084
18.6163
16.9187
18.5536
18.5527
17.009
17.012
18.5759
18.5561
16.9216
18.5527
18.5536
17.012
17.0092
18.5561
18.5831
16.9266
18.5539
18.5556
16.9844
16.9686
18.6174
18.6083
17.0381
18.5561
18.4324
16.9627
17.0512
18.6074
18.4379
18.9497
20.6903
20.6892
18.9748
19.0023
20.7253
20.7059
18.948
20.689
20.6884
19.0044
18.9716
20.6961
20.6889
18.947
20.6883
20.688
18.9488
18.9483
20.6888
20.6886
18.9476
20.688
20.6883
18.9483
18.9557
20.6886
20.6887
18.9492
20.6884
20.689
18.9726
19.0039
20.6889
20.6957
18.9493
20.6892
20.69
19.0019
18.9686
20.7053
20.7314
21.3427
23.5786
23.5776
21.3621
21.3442
23.581
23.6002
21.3422
23.5775
23.5774
21.3433
21.3425
23.5872
23.5775
21.3419
23.5773
23.5772
21.3424
21.3423
23.5775
23.5774
21.3421
23.5772
23.5773
21.3423
21.3425
23.5774
23.5775
21.3426
23.5774
23.5775
21.3425
21.3432
23.5775
23.5871
21.3434
23.5776
23.5782
21.3439
21.3647
23.6108
23.5786
24.4327
26.9149
26.9148
24.4433
24.4343
26.9181
26.9148
24.4325
26.9148
26.9147
24.4329
24.4326
26.9148
26.9148
24.4324
26.9147
26.9147
24.4326
24.4325
26.9147
26.9147
24.4325
26.9147
26.9147
24.4325
24.4326
26.9147
26.9147
24.4326
26.9147
26.9148
24.4326
24.4328
26.9148
26.9148
24.4332
26.9148
26.9149
24.443
24.441
26.9149
26.9223
7.70978
7.97875
7.98891
7.67726
7.7008
7.95525
7.9735
7.70492
7.98456
7.97912
7.70085
7.70156
7.97364
7.97463
8.30528
7.97772
8.12706
7.70158
7.70175
7.97477
7.97488
7.70481
8.08293
7.97977
7.70174
7.70181
7.97488
7.97493
7.70204
7.97665
7.97765
7.7018
7.70081
7.9748
7.97353
7.70757
7.98143
7.98387
7.70039
7.68203
7.973
7.9582
8.08438
8.3754
8.38515
8.04957
8.06878
8.35073
8.36874
8.07711
8.3854
8.38204
8.0689
8.06999
8.36888
8.37018
8.36654
8.38473
9.4291
8.07018
8.07035
8.37049
8.37077
8.07589
9.32338
8.38085
8.07034
8.07035
8.37077
8.37068
8.07515
8.3753
8.37703
8.07018
8.0688
8.37041
8.36876
8.07932
8.38082
8.38009
8.06824
8.05266
8.36806
8.35225
8.49046
8.81374
8.8173
8.45504
8.47373
8.78876
8.8049
8.4863
8.81769
8.81615
8.47387
8.47524
8.80512
8.8067
9.91058
8.82291
11.4141
8.47557
8.47587
8.80709
8.80739
8.48808
11.2885
8.82267
8.47586
8.47577
8.8074
8.8073
8.48394
8.81603
8.81333
8.47548
8.47375
8.80696
8.80497
8.48543
8.81729
8.81792
8.473
8.45691
8.80413
8.79061
8.93559
9.29793
9.29822
8.90437
8.92098
9.27471
9.28821
8.93285
9.30304
9.30006
8.92129
8.92297
9.28856
9.2907
11.8755
9.3083
11.6299
8.92336
8.92362
9.2911
9.29121
8.93913
11.5303
9.30876
8.92364
8.92358
9.29123
9.29134
8.93149
9.29965
9.30457
8.92324
8.92116
9.291
9.2886
8.93341
9.30205
9.30142
8.92025
8.90639
9.28769
9.28347
9.43175
9.83434
9.8495
9.40891
9.41738
9.8202
9.82709
9.43263
9.84524
9.83954
9.41767
9.41996
9.82723
9.82986
11.0949
9.84178
9.87331
9.42038
9.42046
9.83037
9.83048
9.43919
9.86547
9.84136
9.42048
9.42064
9.8305
9.83067
9.43802
9.83906
9.84518
9.42029
9.41784
9.83025
9.82788
9.43039
9.84836
9.83851
9.417
9.41091
9.82677
9.82335
9.95705
10.4423
10.4901
9.96729
9.97164
10.4325
10.4317
9.95036
10.4899
10.4865
9.97154
9.97427
10.4317
10.4342
9.90509
10.4895
10.4811
9.97481
9.97496
10.4347
10.4349
9.95193
10.4834
10.4892
9.97499
9.97513
10.4349
10.4351
9.9523
10.4869
10.487
9.97476
9.97255
10.4349
10.4329
9.98369
10.4825
10.4476
9.97147
9.96758
10.4326
10.4332
10.5719
11.1328
11.1814
10.5919
10.5967
11.1183
11.1242
10.5684
11.1814
11.175
10.5948
10.597
11.1197
11.1174
10.5504
11.1779
11.0262
10.5974
10.5974
11.1176
11.1171
10.5711
11.0286
11.1842
10.5975
10.5978
11.1171
11.1175
10.5656
11.1877
11.1827
10.5976
10.596
11.1175
11.12
10.612
11.1828
11.1391
10.5963
10.6017
11.1215
11.1329
11.2742
11.9255
11.9738
11.3053
11.3093
11.9094
11.9094
11.2671
11.9725
11.9799
11.308
11.303
11.9088
11.9027
11.1481
11.9816
11.9845
11.3032
11.3024
11.9012
11.8991
11.2762
11.9846
11.9814
11.3024
11.3028
11.8991
11.8995
11.2759
11.9803
11.9742
11.3027
11.3067
11.9007
11.9082
11.3265
11.9752
11.9292
11.3081
11.3194
11.9102
11.9228
12.0814
12.8314
12.8864
12.1251
12.1227
12.8264
12.8209
12.0332
12.8852
12.9036
12.1225
12.1168
12.8205
12.8143
12.0381
12.9049
12.8947
12.1143
12.1125
12.8112
12.8034
12.0346
12.8947
12.9023
12.1125
12.1121
12.8034
12.8118
12.0813
12.9021
12.8855
12.1145
12.1231
12.8152
12.8205
12.1432
12.8859
12.8326
12.1257
12.1353
12.8204
12.8262
13.0101
13.8864
13.9569
13.0757
13.0724
13.8825
13.8779
12.9654
13.9546
13.9872
13.0719
13.0667
13.8776
13.8762
12.9579
13.9897