/*--------------------------------*- C++ -*----------------------------------*\
| =========                 |                                                 |
| \\      /  F ield         | OpenFOAM: The Open Source CFD Toolbox           |
|  \\    /   O peration     | Version:  2206                                  |
|   \\  /    A nd           | Website:  www.openfoam.com                      |
|    \\/     M anipulation  |                                                 |
\*---------------------------------------------------------------------------*/
FoamFile
{
    version     2.0;
    format      ascii;
    arch        "LSB;label=32;scalar=64";
    class       volScalarField;
    location    "600";
    object      p;
}
// * * * * * * * * * * * * * * * * * * * * * * * * * * * * * * * * * * * * * //

dimensions      [0 2 -2 0 0 0 0];

internalField   nonuniform List<scalar> 
187974
(
0.0630303
0.0569698
0.0726686
0.0831266
0.0833225
0.0774714
0.0598616
0.061591
0.148394
0.0876044
0.116992
0.215863
0.214515
0.12135
0.091149
0.143938
0.184078
0.225919
0.334115
0.462174
0.460103
0.333306
0.224226
0.180105
0.178441
0.264878
0.401073
0.568704
0.565175
0.397451
0.261352
0.174602
0.122429
0.217286
0.306606
0.422995
0.420115
0.303179
0.213734
0.119507
0.044996
0.125898
0.140524
0.191258
0.189307
0.137965
0.12295
0.0430772
-0.0150185
0.064058
0.0299064
0.0531492
0.0518986
0.0284089
0.0621916
-0.0152228
-0.0499275
0.063912
0.0412066
0.103767
0.103823
0.0411274
0.0637654
-0.0478068
-0.0980177
0.0621026
0.0704702
0.184428
0.185485
0.0716187
0.0635621
-0.0955206
-0.195966
-0.0325688
-0.0516614
0.0311193
0.0318308
-0.0509162
-0.0324752
-0.195486
-0.310759
-0.204699
-0.264011
-0.229067
-0.228778
-0.265032
-0.204801
-0.312583
-0.377424
-0.413001
-0.536636
-0.589689
-0.589509
-0.537283
-0.413727
-0.380388
-0.290653
-0.474826
-0.619786
-0.749539
-0.749534
-0.618759
-0.475028
-0.295672
-0.0461983
-0.261606
-0.28595
-0.368981
-0.369985
-0.285139
-0.260535
-0.0465418
0.217099
0.055518
0.168477
0.152835
0.152611
0.167079
0.0523631
0.221205
0.38484
0.275953
0.454875
0.472038
0.471239
0.454379
0.27382
0.386576
0.435784
0.369162
0.553597
0.579339
0.579214
0.553178
0.368307
0.438568
0.414855
0.383232
0.542385
0.571992
0.571957
0.542875
0.38373
0.41644
0.344619
0.355561
0.478621
0.512778
0.512778
0.478698
0.355559
0.345424
0.235539
0.30642
0.395706
0.432128
0.432146
0.395834
0.306547
0.235863
-0.0848639
-0.131724
-0.496501
-0.135366
-0.132775
-0.494876
-0.132388
-0.0862406
0.126968
0.14186
0.298518
0.469406
0.437909
0.281641
0.125012
0.123028
0.0690568
0.0664409
0.0834718
0.187743
0.593288
0.203094
0.0857162
0.0530392
0.109052
0.143191
0.212276
0.324214
0.412945
0.273085
0.175117
0.100228
0.117614
0.167609
0.233359
0.299769
0.326656
0.275824
0.20745
0.124834
0.0937981
0.155167
0.221604
0.268422
0.284
0.265491
0.214093
0.130986
0.0466954
0.121952
0.203724
0.254593
0.270434
0.259937
0.20893
0.12551
-0.00911919
0.0882466
0.210007
0.314627
0.350986
0.300528
0.21273
0.12329
-0.0810819
0.0466198
0.20064
0.352932
0.414783
0.314277
0.202122
0.118468
-0.211263
-0.0483538
0.121528
0.277699
0.331254
0.233836
0.126018
0.0706911
-0.381472
-0.240439
-0.13716
-0.0523728
-0.0273864
-0.0769237
-0.106711
-0.0638294
-0.534365
-0.49989
-0.535164
-0.541911
-0.537256
-0.549384
-0.476925
-0.280626
-0.537898
-0.698074
-0.969836
-1.18458
-1.24127
-1.11885
-0.852411
-0.487664
-0.278255
-0.566677
-0.907029
-1.19455
-1.27544
-1.10349
-0.806318
-0.466975
0.127672
-0.0585227
-0.173212
-0.202027
-0.205016
-0.226947
-0.225718
-0.179812
0.424108
0.37051
0.438342
0.542732
0.567185
0.46126
0.288771
0.114846
0.526542
0.539467
0.652744
0.765972
0.791562
0.694218
0.502784
0.261165
0.501412
0.530091
0.639445
0.729464
0.749783
0.678518
0.523662
0.295933
0.434412
0.4443
0.553093
0.628869
0.646827
0.594767
0.478102
0.286838
0.311238
0.439511
0.565143
0.62562
0.625604
0.565189
0.439487
0.311243
0.143247
0.61915
0.810788
-0.503004
-0.474689
0.871183
0.631018
0.142772
0.185921
-0.117522
-0.0907508
2.38695
3.14676
0.761437
0.154054
0.173787
0.112997
0.0520395
-0.131931
-1.30913
2.72929
0.154311
0.14595
0.155856
0.112054
0.184117
0.342378
0.773119
1.57816
0.631704
0.3089
0.158718
0.121342
0.238762
0.37473
0.631554
0.853319
0.581441
0.353508
0.21566
0.0886357
0.21633
0.296978
0.375548
0.426097
0.412822
0.316661
0.205929
0.0243134
0.144351
0.215155
0.184861
0.188948
0.277809
0.255012
0.151567
-0.037961
0.106835
0.274437
0.349505
0.425443
0.429436
0.286169
0.148971
-0.0984566
0.129934
0.440352
0.924347
1.43597
0.813712
0.385783
0.184438
-0.265206
0.0988698
0.493446
1.07376
1.44418
0.923609
0.40983
0.170003
-0.575201
-0.166066
0.109394
0.436882
0.595929
0.349882
0.0397667
-0.0527784
-0.968796
-0.673922
-0.656812
-0.401497
-0.158719
-0.507865
-0.697511
-0.527663
-1.14493
-1.30593
-1.95668
-2.43071
-2.53421
-2.36641
-1.83369
-1.09341
-0.692063
-1.3215
-2.37099
-3.58415
-4.10925
-3.3122
-2.12039
-1.08448
0.190289
-0.305007
-0.536045
-0.435149
-0.269453
-0.441993
-0.530732
-0.319136
0.775882
0.625055
0.990746
1.57999
1.85288
1.43875
0.835325
0.337308
0.930118
0.903978
1.28024
1.70828
1.85666
1.60102
1.13715
0.567691
0.79274
0.814525
1.08307
1.34072
1.4224
1.28492
0.993371
0.532508
0.670052
0.650443
0.858074
1.02463
1.07513
0.99496
0.801814
0.456841
0.43575
0.582829
0.745418
0.856254
0.880244
0.812739
0.673143
0.435481
-0.657249
-0.189288
-2.95011
2.9417
3.3361
-3.02632
-0.171706
-0.671947
-0.542231
-0.134825
0.00162278
2.70648
-13.6684
0.134677
0.042577
-0.545883
-0.195025
-0.2953
-0.487691
-1.13796
4.70845
-0.386449
-0.199335
-0.0662679
-0.0593128
0.0377084
0.0181288
-1.0723
-4.40357
-0.595017
0.0929549
0.0420982
-0.0022096
0.110661
0.117477
0.06972
-0.630119
0.15112
0.185697
0.174793
0.000931125
0.138316
0.170211
0.134561
-0.210403
0.411751
0.270623
0.223296
-0.0386833
0.09767
0.119862
-0.399297
-1.35581
0.218779
0.227655
0.155238
-0.0834485
0.0756247
0.181185
-0.933649
-2.79754
0.228925
0.265433
0.128832
-0.135418
0.121429
0.490135
1.25419
14.322
1.3474
0.456647
0.195816
-0.294697
0.195017
0.866278
2.79385
7.69743
2.39942
0.742082
0.279752
-0.723608
-0.0848374
0.612809
1.92364
3.06536
1.6744
0.486709
0.00703509
-1.4091
-0.953666
-0.412296
1.67685
9.76317
1.39465
-0.573511
-0.739384
-1.96005
-2.53544
-3.80838
-3.36618
-0.406021
-3.5224
-3.68221
-2.00827
-1.32079
-3.00121
-7.00557
-16.0761
-26.439
-15.2518
-6.32196
-2.1565
0.286483
-0.51128
-0.864403
1.69496
7.69309
1.39828
-0.960228
-0.428146
1.2172
1.30739
2.74964
6.10372
8.46439
5.65876
2.37797
0.699318
1.3117
1.52389
2.53431
3.84328
4.42898
3.47157
2.16368
0.912671
1.06226
1.21028
1.70859
2.22105
2.39669
2.10923
1.53323
0.762778
0.831785
0.884549
1.17876
1.42567
1.50363
1.37679
1.09598
0.602686
0.51238
0.711752
0.911905
1.05279
1.08333
0.996128
0.81796
0.512321
-0.36584
0.364503
-1.57045
0.776566
0.942246
-1.68931
0.33915
-0.407197
-0.348364
-0.11718
0.84301
9.22622
3.62994
1.50212
0.0379073
-0.351799
-0.262062
-0.365824
-0.606481
-0.206343
0.849619
-1.1673
-0.330074
-0.072289
-0.168106
-0.174887
-0.256653
-0.0825545
-0.0640556
-0.141991
-0.111098
-0.00666479
-0.120101
-0.0890625
-0.162787
-0.196921
0.792279
0.10619
0.00798231
0.0741075
-0.102054
-0.0480322
-0.086187
0.0460542
2.05835
0.471373
0.113602
0.0964808
-0.109191
-0.0464336
-0.0912057
-0.216566
2.67703
0.388925
0.0785037
0.0557916
-0.118626
-0.0147958
0.0608657
-0.311088
0.839727
0.178226
0.0768836
0.0699954
-0.152657
0.0578665
0.248704
1.18866
-8.85284
0.945979
0.21917
0.155148
-0.312782
0.107313
0.553055
1.46834
4.44587
1.21909
0.462582
0.190772
-0.712421
-0.0781252
0.751761
2.33955
12.1456
1.83516
0.539533
-0.00331641
-1.42743
-0.953051
0.134429
4.47727
23.8147
3.82302
-0.186895
-0.757798
-2.09309
-3.0782
-5.05564
0.832223
60.8035
-0.637232
-4.81646
-2.26103
-1.43573
-3.91718
-12.2673
-65.959
-59.0072
-10.4264
-2.42692
0.342762
-0.490805
-0.343739
18.7406
170.142
15.1557
-0.703865
-0.394418
1.33878
1.73166
4.33589
12.3037
19.1573
10.993
3.72518
0.866926
1.39361
1.79969
3.14539
4.97229
5.75203
4.52709
2.67198
1.01563
1.12003
1.34951
1.95741
2.56963
2.78689
2.43295
1.74934
0.820222
0.865587
0.96094
1.28726
1.56673
1.65556
1.51117
1.19462
0.637659
0.510727
0.741585
0.949698
1.09724
1.12919
1.03703
0.847436
0.510631
0.0255645
0.379614
0.0592935
0.132304
-0.0218666
0.271772
0.410738
0.0403023
0.0035499
-0.145732
-0.144519
-0.0465645
-4.32708
-0.418378
-0.00468685
-0.018173
-0.0876528
-0.225505
-0.917369
-4.69754
-2.55579
-1.20867
-0.139407
0.0439976
-0.143705
-0.157211
-0.365011
-1.0392
-2.04246
-0.795524
-0.22432
-0.00134429
-0.153627
-0.195359
-0.368495
-0.625796
-0.454734
-0.336927
-0.180381
-0.0212
-0.146815
-0.195278
-0.326016
-0.376324
0.854325
-0.128239
-0.124376
-0.026751
-0.133487
-0.182775
-0.341782
-0.606038
0.549749
-0.286341
-0.141556
-0.0205996
-0.116052
-0.0743481
-0.137328
-0.34545
0.0135973
-0.197946
-0.060265
0.0467438
-0.147473
0.0078526
0.126979
-0.461159
-4.49687
-0.505806
0.0489813
0.0810007
-0.281032
-0.0430319
0.00131768
-0.589661
-1.47024
-0.527188
-0.0191395
0.0302502
-0.562549
-0.189026
0.176524
0.655909
1.45619
0.444528
0.0587586
-0.109621
-0.978474
-0.747989
-0.299216
1.37304
2.2712
0.926226
-0.439643
-0.579219
-1.2805
-1.88326
-2.98111
-3.18953
-1.68063
-3.31716
-2.86919
-1.361
-0.768694
-2.06949
-4.69518
-10.4619
-15.1233
-9.99748
-4.34964
-1.35721
0.334656
-0.276423
-0.597199
0.78449
3.31248
0.576109
-0.661655
-0.307439
1.01734
1.14736
2.22714
4.5114
5.97401
4.19998
1.97039
0.543719
1.09842
1.34182
2.09427
2.99313
3.41084
2.74527
1.80952
0.711169
0.933225
1.09757
1.52896
1.94623
2.09016
1.85179
1.36745
0.648259
0.746097
0.826281
1.09044
1.31196
1.38071
1.26823
1.00989
0.53991
0.433313
0.64791
0.825211
0.947692
0.973013
0.894739
0.731766
0.433247
-0.129309
-0.0877482
-0.337535
-0.109778
-0.219908
-0.324846
-0.106792
-0.125063
-0.141183
-0.214219
-0.315313
-0.213003
-0.289455
-0.296071
-0.196884
-0.139411
-0.0991594
-0.14971
-0.224063
-0.269076
-0.0747454
-0.206876
-0.144069
-0.0865022
-0.120419
-0.166727
-0.249933
-0.357838
-0.351323
-0.297377
-0.194528
-0.0879956
-0.126685
-0.177303
-0.276555
-0.388447
-0.422857
-0.324632
-0.204686
-0.0909103
-0.123748
-0.168569
-0.262984
-0.361704
-0.380001
-0.300259
-0.189348
-0.0842591
-0.104263
-0.136183
-0.198943
-0.252283
-0.245715
-0.21519
-0.142205
-0.0655515
-0.089874
-0.0864814
-0.0819887
-0.0430682
-0.0128445
-0.0629425
-0.0623645
-0.0286881
-0.123922
-0.0825397
-0.0430222
-0.000714667
0.0101487
-0.0234281
-0.0316768
-0.0139498
-0.214441
-0.147326
-0.122518
-0.168426
-0.20273
-0.132574
-0.08039
-0.04179
-0.360768
-0.258036
-0.15368
-0.0231145
0.0253745
-0.0860155
-0.162636
-0.11724
-0.530923
-0.507028
-0.514274
-0.428275
-0.39532
-0.495635
-0.506528
-0.315851
-0.562101
-0.783656
-1.15529
-1.46233
-1.54145
-1.3629
-1.00309
-0.560835
-0.238625
-0.587364
-1.03992
-1.42584
-1.53779
-1.29521
-0.914418
-0.51854
0.288739
0.0931032
0.0451895
0.111982
0.136375
0.0280571
-0.0813394
-0.106357
0.632423
0.624028
0.818018
1.0559
1.1142
0.905667
0.579258
0.263477
0.719736
0.790032
1.01001
1.20391
1.24507
1.08547
0.777602
0.415897
0.658424
0.717684
0.890441
1.02988
1.05836
0.95268
0.723734
0.413066
0.548572
0.583623
0.733743
0.842122
0.866992
0.794533
0.634148
0.384256
0.309337
0.435095
0.558358
0.617367
0.617407
0.558509
0.435405
0.309557
0.0110151
0.0483149
0.0335584
0.062877
0.046903
0.0399144
0.046516
0.00846984
-0.0109198
0.0148922
0.0315505
0.0960121
0.0862593
0.0296236
0.0148943
-0.0191316
-0.0618807
-0.0412074
-0.0602146
-0.0405331
-0.0493781
-0.0672172
-0.0472117
-0.0673911
-0.101338
-0.0958646
-0.141005
-0.157489
-0.161968
-0.148953
-0.0995844
-0.101835
-0.111005
-0.120186
-0.189676
-0.218755
-0.220404
-0.190706
-0.125077
-0.115372
-0.107705
-0.11775
-0.183364
-0.207741
-0.207836
-0.182477
-0.119816
-0.109089
-0.0876438
-0.0815029
-0.12291
-0.121258
-0.122254
-0.123705
-0.0843394
-0.0904724
-0.0816577
-0.0546269
-0.0774996
-0.0579741
-0.060791
-0.0806459
-0.0579073
-0.0836731
-0.101867
-0.0647678
-0.0963744
-0.090266
-0.0928678
-0.100174
-0.069348
-0.106563
-0.138933
-0.0934608
-0.117789
-0.104544
-0.106951
-0.121654
-0.0981389
-0.143719
-0.192437
-0.176411
-0.197225
-0.187556
-0.189523
-0.199496
-0.180549
-0.195197
-0.220256
-0.302296
-0.360629
-0.415299
-0.417217
-0.363314
-0.305807
-0.221943
-0.131928
-0.321212
-0.381591
-0.488213
-0.489776
-0.383953
-0.324853
-0.133252
0.0799429
-0.128918
-0.0949147
-0.1647
-0.165686
-0.0964094
-0.131449
0.0786573
0.297577
0.130217
0.274075
0.262779
0.262266
0.274031
0.129389
0.297744
0.425479
0.312561
0.503545
0.519754
0.519514
0.504318
0.312914
0.428743
0.454285
0.384816
0.572813
0.596945
0.596862
0.57359
0.385329
0.456027
0.422547
0.389941
0.550689
0.579686
0.579767
0.552034
0.391624
0.425545
0.347384
0.357177
0.479878
0.51336
0.513296
0.480179
0.357781
0.348252
0.236533
0.306466
0.395064
0.431049
0.431077
0.39525
0.306635
0.236923
0.323327
0.216316
0.355091
0.151474
0.328013
0.143726
0.310376
0.657393
0.371344
0.609639
0.317895
0.184248
0.315398
0.801918
1.59781
0.655936
0.938301
-0.0971523
-2.04581
0.763057
1.38504
0.758394
0.932172
0.649075
-2.09082
-0.0909983
1.54449
0.755148
0.335011
0.592959
0.365876
0.197874
0.294171
0.667772
0.298513
0.181296
0.34445
0.214619
0.310683
0.143952
0.298845
0.135802
0.362465
0.212406
0.325903
0.160472
0.321281
0.109652
0.311071
0.594085
0.314636
0.449934
0.325259
0.704932
0.299276
0.657728
0.860283
0.432528
0.516302
0.933922
1.7942
0.642987
1.3107
0.627046
0.512723
0.435982
1.67038
0.838056
1.30219
0.723187
0.370915
0.449404
0.316017
0.722384
0.311113
0.66462
0.295879
0.237054
0.324294
0.212948
0.309951
0.153327
0.305634
0.124402
0.316427
0.152961
0.260889
0.132656
0.302189
0.0672441
0.281446
0.410109
0.224092
0.289786
0.276186
0.595218
0.234559
0.627857
0.428608
0.210256
0.218123
0.583975
1.16481
0.510254
0.981671
0.382028
0.21676
0.216424
1.16544
0.63866
0.981541
0.498831
0.300617
0.293918
0.227041
0.623578
0.278039
0.584009
0.212281
0.217902
0.262627
0.153021
0.296453
0.13466
0.254184
0.0630898
0.253281
0.105878
0.263016
0.0541171
0.253079
0.0242757
0.231014
0.275191
0.240543
0.353087
0.209695
0.610626
0.184912
0.638562
0.189734
0.265597
0.310501
0.491717
1.03665
0.461875
1.21349
0.18934
0.3134
0.267611
1.01633
0.462053
1.22368
0.443779
0.217992
0.356066
0.243451
0.569746
0.192021
0.629801
0.171914
0.144449
0.264671
0.103208
0.239163
0.0475283
0.21935
0.000176606
0.282773
0.106586
0.351696
0.0256313
0.230204
0.083902
0.360551
0.425605
0.394627
0.704925
0.19318
0.68795
0.410649
0.664579
0.419812
0.774215
1.28228
0.441968
1.45249
-0.00367359
8.61662
0.354042
1.2965
0.785115
1.48411
0.417179
9.11508
-0.0211841
0.279438
0.7138
0.399599
0.679923
0.183708
0.647793
0.396592
0.11017
0.355827
0.108523
0.226748
0.0252665
0.340642
0.0775314
0.380752
0.0930099
0.417771
0.115313
0.443422
0.155826
0.746013
0.802345
0.496775
0.930527
0.4722
1.22608
0.846161
2.25839
1.42993
1.08912
1.50683
1.2038
-2.2385
2.63428
7.02085
0.936494
1.50997
1.09604
-2.24855
1.2351
7.03567
2.64299
0.447639
0.93764
0.502213
1.24915
0.46496
2.26133
0.835669
0.131882
0.421179
0.0921853
0.434897
0.115662
0.736702
0.148647
0.407755
-0.0988778
0.168755
0.173996
0.762785
-0.0458482
0.551175
0.918275
0.236754
0.523099
0.875415
2.27031
0.644842
1.55528
1.4424
0.617817
0.813974
2.61505
5.90584
1.66466
2.38984
1.07948
0.81332
0.615669
5.9192
2.61631
2.37143
1.61752
0.497726
0.520272
0.232256
2.26942
0.865034
1.50985
0.617382
0.0998355
0.163989
-0.107981
0.749171
0.166989
0.523323
-0.0613173
0.0446002
-0.525033
-0.451218
-0.130025
0.47644
-0.685162
-0.36233
0.355653
-0.413023
-0.240763
0.563489
1.39842
-0.296561
1.09453
0.597025
-0.15681
0.0328945
1.49284
2.24208
1.25611
6.07601
0.433003
0.0327688
-0.162724
2.21907
1.43232
5.91129
1.2405
0.103534
-0.246444
-0.419943
1.34361
0.533434
1.08251
-0.332738
-0.171992
-0.459271
-0.533632
0.444119
-0.142649
-0.39308
-0.699781
-0.689479
-1.09777
-1.48343
-0.922977
-0.542321
-1.85894
-2.84282
-0.500831
-1.55199
-1.73821
-0.462716
1.18075
-2.96358
-2.86003
-0.157799
-1.73825
-1.70547
1.4081
6.60489
-2.74889
-0.391965
-0.408063
-1.70722
-1.74351
6.47862
1.39126
-0.393011
-2.7639
-0.663579
-1.74425
-1.55955
1.1699
-0.503138
-2.87436
-2.98558
-0.681034
-1.49332
-1.10415
-0.569951
-0.93609
-2.86095
-1.87037
-1.82504
-1.30998
-2.15662
-2.2496
-3.31515
-2.58333
-5.5322
-2.35952
-2.39503
-3.30749
-3.48215
-3.48533
-6.12056
-13.3671
-2.53048
-3.56848
-4.05445
-3.40612
-1.06589
-14.1742
-21.7031
-2.43638
-4.05627
-3.57704
-1.06861
-3.42107
-21.7128
-14.2237
-1.96505
-3.3165
-2.39984
-3.49687
-3.51019
-13.4142
-6.14175
-1.31207
-2.16252
-1.31592
-3.3385
-2.25999
-5.55338
-2.58993
-2.11799
-0.550158
-0.968618
-2.52331
-5.40111
-0.967926
-1.60107
-3.30067
-1.04131
-1.24498
-5.91191
-13.4688
-1.66646
-0.118391
-4.1031
-1.2892
-1.28203
-14.2931
-22.3207
0.12275
4.43252
-3.59674
-1.28869
-1.26059
-22.3333
-14.3517
4.43391
0.0880473
-2.37364
-1.21442
-1.03615
-13.5241
-5.93528
-0.0780425
-1.62798
-1.32131
-0.9665
-0.538551
-5.4132
-2.53151
-1.62598
-0.967619
-0.533605
0.44249
0.596424
-0.434876
-0.922464
0.905785
1.94851
-0.478953
0.713672
1.1278
-0.872629
0.78986
2.24941
4.88732
-0.262359
1.25925
1.5384
1.1493
5.70266
5.34606
7.5301
-0.402528
1.54322
1.25761
5.70018
1.1157
7.53598
5.34318
-0.525885
1.13091
0.715006
0.835929
-0.845374
4.87961
2.24013
-0.30492
0.588159
0.438352
-0.933755
-0.440441
1.94478
0.89142
0.839361
0.825526
1.08291
1.15937
2.1066
1.38016
2.19195
1.43461
1.22812
1.59503
2.42466
4.78848
2.34467
3.46471
1.85008
1.70319
1.87882
5.191
7.05757
3.61301
4.47178
1.57305
1.87212
1.68205
7.06271
5.19051
4.47116
3.62518
0.990647
1.58435
1.22617
4.7818
2.39244
3.47864
2.34822
0.623758
1.07876
0.83351
2.0937
1.15904
2.20545
1.37212
1.1376
0.820903
1.0105
1.38173
1.88161
1.17481
1.49825
1.61124
1.1147
1.32912
2.17907
2.92658
1.68806
2.13664
1.85868
1.39717
1.50193
3.2049
3.69324
2.26879
2.45539
1.69823
1.50017
1.3945
3.68813
3.20701
2.45501
2.26563
1.28025
1.33422
1.11945
2.95467
2.19787
2.13661
1.69862
0.899432
1.01303
0.821071
1.89082
1.37433
1.5102
1.16997
0.990277
0.670779
0.822674
1.11735
1.38564
0.88329
1.10231
1.28342
0.889797
1.0374
1.5507
1.91446
1.20248
1.40756
1.42296
1.07097
1.12517
2.01559
2.16475
1.46279
1.54519
1.33782
1.12512
1.07054
2.16463
2.01428
1.54518
1.46274
1.08995
1.03725
0.890374
1.91497
1.55654
1.40755
1.20279
0.815574
0.822457
0.671724
1.39082
1.11845
1.10151
0.881678
0.801812
0.571284
0.694242
0.839676
1.03054
0.664217
0.792729
0.994822
0.783333
0.861159
1.10981
1.2918
0.909889
0.99472
1.07514
0.909391
0.937244
1.33748
1.40853
1.05846
1.08962
1.02451
0.937254
0.909489
1.40853
1.33749
1.08963
1.05851
0.85889
0.861235
0.783995
1.29185
1.11007
0.994777
0.91005
0.653548
0.693642
0.571092
1.03033
0.841078
0.792738
0.665007
0.148202
0.0796739
0.16853
-0.152096
-0.121029
-0.0693834
-0.0107855
-0.541928
0.0682515
0.00116097
-0.265109
-0.274215
-0.152833
-0.0925754
-4.56907
-0.588915
-1.56953
-0.138833
-0.746062
-0.340272
-0.0150368
-1.2979
-1.24476
-0.535335
-0.857076
-0.193889
0.0232688
-0.226229
-0.0203693
-0.0430681
0.0446535
-0.271777
-0.227333
-0.0367328
-0.116529
0.00777531
0.142557
0.0725876
-0.101836
-0.150574
0.00718321
-0.066198
0.211134
0.124265
0.270161
-0.0441707
0.0358745
-0.0169349
0.132133
0.139822
0.187509
0.371338
-0.106956
0.0401525
0.00118623
0.398325
-0.406097
0.174095
0.120228
-0.210069
0.250153
0.14879
1.1054
-0.235508
0.0836579
0.343012
0.287498
-0.114269
1.09196
0.196124
0.0949624
0.4348
0.19082
0.0844782
-0.0740842
0.398751
0.0218476
0.110415
0.261281
0.126267
0.0450437
-0.0385094
0.131983
-0.0106022
0.275103
0.104175
0.247795
-0.00813782
0.14674
-0.0304464
0.134284
0.312917
0.131007
0.300384
0.0199798
0.487758
0.0328714
0.580513
-0.202629
-0.288485
-1.10681
0.229652
1.42998
0.242708
2.27308
0.228484
-1.18777
-0.235137
1.40596
0.267848
2.22065
0.281871
0.18678
0.271443
0.12587
0.478139
0.0386291
0.567755
0.0455863
0.146093
0.240534
0.0943553
0.146541
0.000202951
0.131913
-0.0285411
0.235603
0.072606
0.244748
-0.0366424
0.11225
-0.0475566
0.0612398
0.263134
0.150725
0.208169
0.0245246
0.542496
0.0423793
0.376452
-1.28628
-0.841945
-2.41916
0.187575
2.46935
0.168477
2.7103
-0.413074
-2.47797
-0.851136
2.41961
0.225948
2.71646
0.151695
0.109894
0.203761
0.138674
0.535535
0.0346219
0.379654
0.0315446
0.0788546
0.23751
0.0625463
0.10957
-0.0339025
0.0451361
-0.0563631
0.256679
0.100266
0.462179
-0.0368786
0.0689992
0.0115634
0.132605
0.237361
0.62172
2.11071
0.0729937
0.304005
0.128368
0.478218
-2.80094
2.51233
-4.55539
0.263913
2.70071
1.79794
1.27616
-0.945669
-4.20767
2.62239
2.76676
0.206161
2.07748
1.5269
0.185047
2.16548
0.625834
0.306675
0.0502397
0.332757
0.0440074
0.0788167
0.455702
0.0960221
0.0460041
-0.0489605
0.0698733
-0.016495
0.463615
0.166162
0.741556
0.0535155
0.25798
0.111254
0.578608
1.33056
0.834352
2.35037
0.193566
0.791439
0.615028
1.39585
14.1223
2.7797
9.19619
0.648582
-13.0291
1.4704
3.34924
1.27897
9.23091
2.79361
-12.9829
0.457853
3.36082
1.37724
0.484324
2.3592
0.824074
0.618022
0.107023
1.29963
0.54502
0.117392
0.731254
0.157796
0.18147
0.0253243
0.515674
0.0838042
0.755946
-0.00800565
0.588178
0.146742
0.620057
-0.00572632
0.744852
2.39757
0.692868
1.89213
0.665563
1.59164
0.874523
2.63313
7.68187
2.0974
3.14985
1.71777
4.13073
3.034
10.6135
2.8012
3.14692
2.04947
4.19808
1.62837
10.5839
2.77602
0.853643
1.84669
0.662497
1.49173
0.594598
2.36266
0.774376
0.18515
0.559489
-0.0236455
0.556203
0.11935
0.657377
-0.0375837
0.519963
-0.683148
-0.35591
-0.0585815
0.729135
-0.667622
0.0841626
1.73203
-0.240681
1.30924
0.873005
2.80022
0.309205
4.13713
3.08208
1.49823
8.3586
3.24929
11.8995
4.58949
24.9864
1.86414
8.29009
1.45341
11.9211
2.97661
25.384
4.32693
0.582209
1.26364
-0.273648
2.52482
0.770127
3.89047
0.221637
-0.101704
-0.385614
-0.70075
0.638787
-0.0920162
0.00106342
-0.701313
-0.545321
-2.03417
-3.10995
-0.966802
-0.134768
-2.4255
-3.92054
1.44089
-3.19147
-2.83511
0.0983939
4.21296
-4.06543
0.839382
9.80796
-2.67178
0.141448
4.68334
26.8597
2.25515
69.3985
1.63792
0.143436
-2.69258
27.3575
4.44272
69.4379
2.18763
-0.440584
-2.85494
-3.21268
3.98438
0.0169053
0.768521
-4.11629
-0.97087
-3.13025
-2.0476
-0.21334
-0.999538
-3.97086
-2.45397
-3.66191
-3.02503
-6.40145
-3.11877
-4.87056
-4.00325
-10.7459
-3.50486
-7.21199
-15.1032
-5.18703
-0.675399
-12.6752
-57.1361
-0.403685
-15.9309
-25.618
0.6918
68.8102
-63.6518
14.6742
-3.38374
-25.624
-15.994
69.2163
0.628579
16.2798
-63.9249
-3.82882
-15.1606
-7.23813
-0.744202
-5.23596
-57.3997
-12.717
-2.54771
-6.42243
-3.0299
-4.91839
-3.14578
-10.7833
-4.02346
-6.30843
-1.14418
-1.74553
-3.98718
-10.6897
-1.4002
-2.0958
-15.1866
-1.78498
0.284656
-12.6458
-59.8421
-2.00186
12.8007
-26.4283
0.584602
6.42403
-67.2731
-574.904
16.4765
198.182
-16.1494
6.4236
0.643194
-572.145
-67.5891
198.241
16.5427
-7.02279
0.402156
-1.75166
-60.1334
-12.6864
12.8541
-2.00711
-3.006
-1.74153
-1.14014
-10.726
-4.00623
-2.10511
-1.40986
-0.94525
1.02589
2.22748
-0.521106
-0.723472
1.39909
3.66903
1.32303
2.56117
5.81063
-0.366277
15.3489
4.34044
12.4306
7.69964
6.38352
9.29137
19.0461
167.019
14.1192
23.4789
1.73655
9.30486
6.37876
167.065
19.1111
23.4795
14.1514
-0.877892
5.86948
2.57041
15.4044
-0.365104
12.4634
4.34964
-0.510728
2.23459
1.01331
-0.727069
-0.530212
3.67583
1.39148
2.43314
1.53262
2.33122
1.74019
3.74565
1.83651
3.11898
5.61324
2.47717
3.71098
4.35883
11.1844
3.34319
5.47478
8.44614
3.87552
4.81211
12.5171
19.5187
5.72779
7.01477
6.09326
4.81227
3.88755
19.5197
12.5458
7.01504
5.73182
2.70249
3.72768
2.46266
11.2138
4.36673
5.47967
3.347
1.32376
2.32082
1.5217
3.75178
1.73804
3.12259
1.83433
2.17805
1.26691
1.68314
1.81247
2.69489
1.43424
1.95331
3.48228
1.88518
2.38745
3.17995
4.57527
2.21267
2.8238
4.42894
2.52866
2.75706
5.03174
5.82259
3.0057
3.2972
3.8365
2.7572
2.53091
5.82264
5.03153
3.29717
3.0055
2.52967
2.38818
1.88541
4.57304
3.17625
2.8234
2.212
1.52876
1.68396
1.26244
2.69135
1.81051
1.95291
1.43421
1.52946
0.939477
1.1847
1.35389
1.75687
1.02541
1.30231
2.10887
1.28654
1.51284
1.9675
2.44583
1.41923
1.68028
2.39663
1.57254
1.66424
2.5844
2.80302
1.74953
1.85632
2.22199
1.66425
1.57265
2.80299
2.58429
1.85632
1.74955
1.71007
1.51288
1.28675
2.44561
1.96717
1.68027
1.41922
1.20705
1.18358
0.941265
1.7567
1.35388
1.30224
1.02538
1.09662
0.724804
0.880362
0.962638
1.19713
0.762987
0.921306
1.37673
1.00367
1.10642
1.29052
1.5152
1.05505
1.16201
1.50363
1.17538
1.21271
1.57124
1.6604
1.2367
1.27607
1.42575
1.21272
1.17542
1.6604
1.57127
1.27608
1.23674
1.17881
1.10645
1.00375
1.51521
1.29053
1.16207
1.05511
0.886054
0.88031
0.72479
1.1971
0.962518
0.921349
0.763039
-0.103221
-0.10797
-0.0171533
-0.0935782
-0.103934
-0.133612
-0.14265
-0.179535
-0.19074
0.0121005
-0.234809
-0.592968
-0.313361
-0.421847
-0.0941947
-0.259343
0.593722
-0.580371
-2.39015
-0.603813
-0.375697
-0.0514945
0.589985
-0.202803
-2.28114
-0.695939
-1.16946
-0.71982
-0.246213
-0.00379891
-0.189901
-0.620477
-0.244981
-0.388729
-0.310203
-0.173474
-0.0298477
-0.108779
-0.127961
-0.115881
-0.142612
-0.140266
0.0172771
-0.0542813
0.107152
-0.13887
-0.133968
-0.138158
-0.106129
0.112085
-0.0916261
0.426693
-0.307604
-0.430998
-0.29768
-0.398689
0.719532
0.0123969
1.6262
-0.710234
-2.1139
-1.02786
-2.87322
-0.131049
1.6285
0.0338121
-1.18832
-0.704717
-2.80685
-0.881878
-0.159438
0.411258
-0.0847198
-0.488784
-0.320746
-0.330907
-0.284317
-0.0879828
0.101193
-0.0531418
-0.14313
-0.141958
-0.104114
-0.134099
0.117869
-0.0452644
0.10185
-0.144365
-0.0919693
-0.137881
-0.0743582
0.482133
-0.0919441
0.457903
-0.274198
-0.320644
-0.277922
-0.100913
2.05518
-0.115999
2.61256
-0.731922
-0.987573
-0.702366
-1.08849
0.0701031
2.64025
-0.0869629
-0.95657
-0.767211
-1.05946
-0.767723
-0.0762208
0.461379
-0.0847353
-0.216842
-0.264984
-0.117888
-0.279341
-0.0452219
0.0952621
-0.0476854
-0.0800352
-0.138316
-0.0750882
-0.135527
0.0869735
-0.0289991
0.0860954
-0.143931
-0.0905486
-0.112706
-0.0982071
0.376769
0.00258204
0.166668
-0.287105
-0.272084
-0.247823
-0.265087
2.61151
-0.35939
1.32317
-0.838023
-1.38773
-0.486988
0.347542
-0.188515
1.55718
-0.377549
-1.38521
-0.869123
0.307105
-0.567178
-0.0868992
0.199972
-0.0158847
-0.259773
-0.28808
-0.259897
-0.266067
-0.0491637
0.0632086
-0.0428196
-0.0841401
-0.141152
-0.101668
-0.120139
0.108395
0.0237253
0.223627
-0.0874209
-0.0639939
-0.00750899
0.160763
0.147904
0.266592
0.599048
-0.177663
-0.091393
0.148033
-0.607736
0.482647
0.772553
4.00574
-0.321916
0.643658
-1.88633
-6.25754
-0.365798
5.32746
0.589107
0.575228
-0.44645
-6.4823
-1.94744
0.0305839
0.419327
0.169026
-0.113369
-0.213749
-0.645562
0.0513473
-0.032306
0.147271
-0.00920308
-0.0815754
-0.10272
0.0923628
-0.0408724
0.293745
0.0821657
0.494604
0.0276257
0.13683
-0.0119447
0.0877507
1.1567
0.51677
1.17511
0.144191
-0.370902
0.0538304
-0.360803
-8.60075
1.28011
3.69844
-0.202999
-0.260415
-0.5033
-1.62505
0.935104
3.60102
1.17114
-0.498455
-0.422587
-1.65408
-0.630438
0.166935
1.09084
0.451661
-0.537661
0.052265
-0.450779
-0.0317409
0.0238014
0.433872
0.0503766
0.0532673
-0.00959456
0.0252681
-0.0455225
0.524186
-0.0350265
0.635525
-0.0111833
0.0879889
-0.121103
0.190236
1.31609
0.735803
1.9101
0.0579481
-0.377517
0.228083
0.365107
4.48246
2.19289
11.7391
-0.52348
-1.73977
0.408968
0.977329
1.35221
11.4263
2.07603
-1.77643
-0.667174
0.95837
-0.0332392
0.486626
1.71825
0.633028
-0.499314
-0.0299228
0.187174
0.120697
0.0757561
0.544052
-0.0710576
0.0134905
-0.0436161
0.0998246
-0.158466
0.636267
-0.658116
0.119921
-0.145657
0.212158
-0.569777
-0.146921
2.04897
0.34911
4.02057
0.267972
0.587442
-0.0060259
1.52974
12.1432
4.44596
20.7505
0.817843
2.25859
1.66494
2.69825
2.20796
21.2862
4.1871
2.21663
0.421044
2.61585
1.33808
0.64208
3.78065
0.247159
0.469841
0.154628
1.20407
-0.117241
-0.116008
0.026447
-0.695503
0.116642
-0.183282
-0.234174
-0.605334
-0.0994494
-2.40083
-3.83285
-0.793825
-0.338799
-1.74501
-2.66644
4.04674
-3.96189
0.921521
-0.209722
1.40004
-2.73698
-2.75382
22.98
2.3262
59.9667
1.53921
2.3491
-2.64203
-0.26605
4.24137
59.7744
2.22733
2.26501
1.22129
-0.292227
-2.70386
0.0397357
0.819063
-4.02388
1.09213
-0.312537
-2.86297
-2.79684
-0.987988
-3.88927
-2.42941
-0.423584
-0.830329
-2.72879
-1.77942
-4.76139
-3.93809
-10.4098
-2.18231
-3.13195
-2.57775
-5.33268
-0.533681
-12.2767
-56.1773
-3.2623
-3.28466
-5.80451
-11.1991
60.8042
-62.6252
-311.735
-3.20643
-1.07837
-11.7337
-17.3392
0.734707
-310.534
-62.8773
-1.10125
-3.3032
-17.3443
-11.8067
-5.11662
-56.4685
-12.3363
-3.38785
-3.31812
-11.2782
-5.84211
-3.1037
-10.4622
-3.95382
-3.1929
-2.21062
-5.35977
-2.59476
-10.3776
-1.35289
-2.04462
-2.54479
-5.162
-0.895707
-1.38548
-58.694
-1.94955
12.6262
-5.66788
-11.224
-1.31074
0.156623
16.2581
210.06
-11.7623
-17.5592
0.299133
3.38727
-66.2472
210.126
16.3234
-17.5619
-11.8157
3.39983
0.306087
-12.3231
12.6777
-1.96171
-11.2689
-5.70208
0.160068
-1.31655
-3.93048
-2.0575
-1.36713
-5.18582
-2.55574
-1.34569
-0.907058
-0.695408
1.3963
3.65148
-0.329169
-0.722087
1.00784
2.09039
15.1008
4.316
12.1663
-0.577981
0.960025
2.37
5.1582
170.1
13.809
22.9707
1.08359
4.41644
5.51981
7.69686
18.8108
22.9725
13.8138
4.42905
1.08907
7.69928
5.53626
-0.349427
12.1683
4.3115
0.961831
-0.585259
5.17469
2.37034
-0.497327
3.64715
1.39466
-0.719891
-0.334886
2.08881
1.00827
3.72811
1.82453
3.1099
1.28732
2.22832
1.49918
2.21361
10.9914
3.33285
5.44556
2.51137
5.05843
2.34446
3.5648
19.1559
5.69671
6.97158
5.3602
7.14288
3.78729
4.43908
12.3055
6.97182
5.70065
7.14545
5.37012
4.43946
3.76113
4.33238
5.45042
3.33795
5.05987
2.50674
3.55372
2.34513
1.73163
3.11473
1.82614
2.23129
1.28534
2.2143
1.50373
2.66765
1.42872
1.94175
1.47433
2.08065
1.22927
1.64383
4.52349
2.19897
2.80478
2.41071
3.33404
1.84702
2.30579
5.75162
2.98514
3.27434
3.67787
4.14295
2.43948
2.64676
4.97521
3.27446
2.98625
4.1436
3.67281
2.64661
2.43992
3.14934
2.80605
2.20039
3.32934
2.41028
2.30578
1.84573
1.80078
1.94321
1.4292
2.08127
1.47389
1.64608
1.22892
1.74823
1.0233
1.29862
1.19033
1.51124
0.92857
1.16445
2.43207
1.41501
1.67465
1.68125
2.04793
1.2641
1.48561
2.78681
1.74354
1.84984
2.15246
2.31599