/*--------------------------------*- C++ -*----------------------------------*\
| =========                 |                                                 |
| \\      /  F ield         | OpenFOAM: The Open Source CFD Toolbox           |
|  \\    /   O peration     | Version:  2206                                  |
|   \\  /    A nd           | Website:  www.openfoam.com                      |
|    \\/     M anipulation  |                                                 |
\*---------------------------------------------------------------------------*/
FoamFile
{
    version     2.0;
    format      ascii;
    arch        "LSB;label=32;scalar=64";
    class       volScalarField;
    location    "600";
    object      ReThetat;
}
// * * * * * * * * * * * * * * * * * * * * * * * * * * * * * * * * * * * * * //

dimensions      [0 0 0 0 0 0 0];

internalField   nonuniform List<scalar> 
187974
(
528.218
556.817
555.319
555.429
555.412
555.362
557.382
526.734
509.508
534.025
532.124
531.9
531.873
532.153
534.68
507.767
498.439
519.456
517.545
517.205
517.174
517.568
520.185
496.551
486.671
501.531
499.675
499.479
499.445
499.678
502.336
484.587
471.358
482.81
481.182
481.271
481.236
481.143
483.673
469.114
454.528
462.969
461.71
461.87
461.831
461.595
463.884
452.198
436.487
442.787
441.658
441.295
441.253
441.502
443.75
434.331
416.695
422.194
420.889
420.02
419.978
420.736
423.093
414.323
400.586
402.269
401.95
401.985
401.962
401.887
403.025
398.712
387.368
387.434
387.464
387.283
387.281
387.375
388.278
385.431
371.497
372.601
372.411
372.229
372.23
372.378
373.006
369.916
357.039
357.536
357.357
357.157
357.163
357.372
358.233
355.17
340.903
341.978
342.025
342.076
342.078
342.016
342.591
339.118
324.864
325.843
325.83
325.798
325.791
325.789
326.403
323.211
308.618
309.533
309.47
309.453
309.444
309.442
309.92
307.392
292.158
292.939
292.89
292.882
292.88
292.881
292.858
292.213
276.047
275.976
275.958
275.964
275.964
275.959
275.957
275.765
258.483
258.578
258.555
258.552
258.551
258.555
258.577
258.515
240.629
240.698
240.689
240.688
240.688
240.689
240.699
240.622
222.274
222.314
222.312
222.31
222.31
222.312
222.315
222.273
563.404
557.423
557.465
557.679
557.66
557.453
557.436
563.129
540.808
535.985
536.075
536.154
536.123
536.054
536.003
540.561
534.34
526.123
526.185
526.119
526.051
526.33
526.197
546.962
501.88
510.042
510.503
510.922
510.931
511.26
510.049
522.369
472.264
493.581
494.423
496.072
496.202
496.021
493.375
501.141
441.035
476.898
477.359
479.969
480.214
479.608
476.258
481.699
415.844
458.493
457.673
461.049
461.339
460.383
457.418
460.11
398.29
434.952
434.698
439.136
439.392
437.247
434.241
436.286
387.939
410.186
410.784
412.686
412.612
412.841
410.047
412.211
377.188
393.929
393.426
393.487
393.526
393.548
393.617
394.768
366.982
377.366
377.493
377.501
377.502
377.507
377.528
377.757
357.476
361.709
361.83
361.863
361.859
361.864
361.718
362.135
346.116
345.905
346.036
346.117
346.136
346.098
345.958
346.36
329.866
329.977
330.045
330.054
330.058
330.031
330.017
330.483
313.685
313.698
313.639
313.52
313.463
313.475
313.561
314.201
297.342
297.225
297.087
297.035
297.032
297.055
297.113
297.664
280.635
280.487
280.39
280.368
280.37
280.385
280.442
280.872
263.451
263.328
263.277
263.253
263.254
263.268
263.31
263.414
245.635
245.597
245.631
245.626
245.624
245.634
245.56
245.682
222.125
222.173
222.198
222.197
222.197
222.198
222.162
222.138
526.065
558.17
556.395
318.27
320.106
557.147
558.079
524.525
505.747
540.709
540.533
596.51
587.749
540.631
540.161
504.692
480.547
526.762
526.447
529.581
538.199
526.377
526.251
544.648
459.929
513.304
512.244
511.958
531.99
512.107
512.189
522.986
430.808
496.121
494.82
494.37
496.814
494.561
494.845
506.63
403.991
477.711
476.309
476.035
475.908
476.155
476.339
489.474
394.89
457.993
456.601
456.558
456.605
456.59
456.587
470.275
388.082
436.68
435.292
435.278
435.29
435.291
435.256
440.097
379.085
413.366
411.962
411.767
411.621
411.851
411.948
409.248
371.341
394.611
395.08
394.908
394.809
394.985
395.046
392.936
366.296
379.223
379.418
379.537
379.551
379.572
379.331
377.235
355.613
363.672
363.892
364.052
364.104
364.074
363.826
361.616
344.62
347.952
348.193
348.58
348.661
348.561
348.119
345.93
329.881
332.06
332.392
332.674
332.814
332.635
332.305
330.024
313.714
315.724
315.714
315.506
315.381
315.426
315.682
313.78
297.308
299.228
298.936
298.709
298.68
298.8
299.006
297.348
280.601
282.496
282.251
282.055
282.054
282.146
282.363
280.665
263.319
265.356
265.245
265.392
265.496
265.341
265.362
263.405
245.621
247.879
248.161
248.304
248.302
248.306
247.961
245.766
222.197
227.56
227.564
227.563
227.563
227.563
227.566
222.198
509.058
559.947
550.267
229.723
231.602
550.716
558.031
510.886
490.294
540.513
539.032
269.71
144.88
530.888
540.258
489.482
434.621
526.387
524.912
214.816
135.337
525.456
526.565
543.661
430.721
511.777
512.181
235.085
119.926
550.74
512.702
520.147
419.729
494.526
494.11
251.212
117.157
539.737
495.128
501.725
407.728
475.957
475.02
442.627
155.852
479.863
476.049
482.034
399.971
456.112
455.274
449.92
156.641
452.308
456.023
456.552
391.895
434.693
434.466
433.344
110.566
432.507
434.828
434.317
383.443
411.264
413.469
409.931
87.392
412.261
413.286
410.236
374.583
394.578
395.804
392.086
245.273
393.329
395.641
393.555
365.409
378.951
380.153
378.139
385.646
378.544
380.145
377.483
355.118
363.472
364.571
364.943
453.33
364.99
364.542
361.589
344.075
348.139
349.558
349.895
348.593
349.968
349.425
346.069
329.979
332.378
334.314
336.536
337.514
336.393
334.09
330.225
313.721
315.841
316.952
316.59
315.2
316.604
316.899
313.842
297.287
299.269
300.163
298.943
298.455
299.049
299.949
297.373
280.63
282.735
282.398
282.262
282.38
282.084
282.32
280.755
263.603
265.842
265.627
265.761
265.741
265.772
265.609
263.653
245.88
248.269
248.304
248.291
248.286
248.293
248.308
245.951
222.223
227.562
227.563
227.562
227.561
227.562
227.563
222.223
511.233
558.423
552.033
193.15
196.764
552.081
562.145
507.17
491.423
541.04
538.621
367.232
186.938
530.718
538.977
491.71
429.742
525.799
524.613
311.792
187.421
519.487
525.671
537.056
426.607
512.106
511.434
490.605
219.048
502.933
511.702
513.728
416.139
494.794
494.01
468.108
246.701
485.535
494.29
495.972
406.25
476.246
475.206
447.598
241.149
465.965
475.519
477.254
398.987
456.355
455.321
426.708
193.217
445.786
455.607
456.992
391.313
434.846
434.162
406.754
135.921
425.411
434.36
434.926
383.008
411.323
412.479
397.904
106.149
403.288
412.552
410.792
374.246
394.612
395.145
379.673
91.3303
386.658
395.269
393.862
365.17
378.968
379.419
363.264
89.2157
370.549
379.537
377.738
355.47
363.477
363.944
352.277
69.105
355.199
364.078
361.74
344.916
348.178
349.346
336.77
123.583
339.903
349.37
346.151
330.041
332.516
335.138
338.016
339.096
334.802
330.288
313.745
315.905
316.98
313.637
276.279
314.376
317.033
313.905
297.291
299.302
299.964
298.586
297.319
298.82
300.057
297.401
280.658
282.745
282.564
282.295
282.174
282.362
282.628
280.752
263.61
265.833
265.785
265.719
265.694
265.734
265.806
263.695
245.89
248.303
248.297
248.281
248.275
248.284
248.301
245.962
222.223
227.561
227.562
227.561
227.561
227.562
227.563
222.223
518.426
558.81
556.393
337.622
346.074
556.617
560.398
515.675
490.527
542.962
539.786
497.099
217.635
542.763
539.684
494.317
424.908
525.92
525.675
485.974
264.023
525.16
525.958
539.475
429.082
511.865
511.51
513.278
313.897
509.992
511.941
515.257
416.043
494.742
494.141
492.734
498.918
493.786
494.559
493.965
405.479
476.367
475.874
475.724
380.893
476.179
476.049
475.045
397.138
456.629
456.546
456.918
277.283
456.963
456.395
454.954
388.122
435.097
435.033
434.708
294.446
435.047
434.735
433.067
376.389
411.786
412.749
411.004
475.222
411.674
412.836
409.604
372.116
394.969
395.694
395.24
395.945
395.391
395.944
393.464
360.857
379.268
380.179
380.559
396.562
380.227
380.147
377.673
355.068
363.584
364.568
364.758
363.028
364.867
364.542
361.517
344.713
348.045
349.401
349.913
349.332
349.999
349.361
345.977
329.884
332.226
333.822
335.505
336.455
335.435
333.76
330.089
313.68
315.826
316.846
316.653
316.232
316.712
316.756
313.839
297.258
299.252
299.925
299.059
298.865
299.238
300.009
297.339
280.508
282.625
282.318
282.181
282.437
282.069
282.359
280.59
263.558
265.596
265.789
265.791
265.776
265.801
265.67
263.607
245.861
248.166
248.262
248.299
248.294
248.3
248.078
245.891
222.161
227.516
227.564
227.563
227.563
227.564
227.567
222.159
536.273
558.743
559.201
562.787
562.342
558.529
558.735
541.006
513.278
536.789
537.316
539.46
538.715
536.639
537.045
517.136
439.688
525.71
525.552
525.421
526.692
525.877
525.971
542.68
438.627
509.678
509.676
509.814
509.954
509.912
510.009
519.666
427.285
492.623
492.972
492.932
492.966
492.886
492.923
501.825
428.105
474.289
474.529
474.556
474.599
474.476
474.499
480.809
431.712
454.356
454.552
454.564
454.589
454.47
454.513
456.789
411.792
432.63
432.805
432.749
432.726
432.665
432.759
433.552
399.672
408.895
409.122
409.023
409.015
408.963
409.073
409.347
390.152
393.158
393.281
393.267
393.293
393.228
393.259
393.216
377.315
377.454
377.591
377.612
377.629
377.595
377.554
377.202
361.577
361.712
361.881
361.939
361.958
361.894
361.782
361.531
345.859
345.904
346.107
346.225
346.275
346.148
346.043
345.83
329.928
329.974
330.125
330.13
330.178
330.095
330.112
329.935
313.689
313.59
313.489
313.334
313.354
313.368
313.623
313.72
297.194
297.014
296.986
296.838
296.835
296.889
297.066
297.248
280.459
280.329
280.282
280.154
280.142
280.179
280.356
280.528
263.38
263.229
263.127
263.117
263.095
263.098
263.217
263.451
245.688
245.46
245.438
245.495
245.486
245.495
245.431
245.579
222.078
222.087
222.107
222.106
222.106
222.107
222.083
222.102
537.948
558.325
557.574
557.749
557.696
557.558
558.083
524.628
520.764
536.543
536.283
536.176
536.144
536.134
536.658
507.506
506.966
523.171
522.782
522.674
522.646
522.661
523.155
497.968
490.586
506.608
506.174
506.11
506.088
506.112
506.589
484.374
471.232
489.346
488.772
488.759
488.739
488.746
489.257
468.743
457.284
470.501
469.91
469.913
469.881
469.884
470.453
452.079
435.841
450.128
449.481
449.478
449.431
449.426
450.077
434.675
417.669
427.926
427.236
427.224
427.169
427.141
427.853
417.29
401.419
405.552
405.062
405.054
405.035
405.006
405.478
401.403
387.644
389.773
389.26
389.251
389.245
389.238
389.717
387.744
371.503
374.028
373.501
373.494
373.494
373.504
373.993
371.626
355.801
358.249
357.745
357.751
357.75
357.749
358.232
355.947
339.936
342.403
341.882
341.9
341.899
341.887
342.392
340.091
324.029
326.306
325.759
325.763
325.761
325.765
326.296
324.188
308.179
309.837
309.424
309.417
309.418
309.43
309.827
308.341
292.821
292.82
292.877
292.871
292.871
292.881
292.814
293.004
275.729
276.001
275.966
275.962
275.962
275.97
275.985
275.891
258.39
258.585
258.558
258.553
258.552
258.567
258.59
258.521
240.566
240.695
240.688
240.687
240.687
240.702
240.732
240.649
222.287
222.316
222.313
222.312
222.312
222.313
222.318
222.276
512.202
500.533
499.311
512.596
512.651
499.855
499.223
512.078
499.284
499.001
512.605
563.115
499.042
530.384
532.642
498.837
504.796
404.214
115.78
450.745
123.036
512.002
504.674
498.868
115.787
430.758
123.224
475.323
512.235
499.03
499.272
560.697
512.586
528.122
499.352
512.877
499.296
500.057
512.61
513.394
499.521
500.591
494.86
482.427
481.091
495.415
494.66
481.53
480.58
494.53
481.039
480.816
494.436
513.848
480.295
479.772
496.928
480.701
480.509
476.319
132.946
478.025
242.079
494.402
480.512
480.738
133.286
494.488
243.296
483.621
494.807
480.847
481.025
512.019
494.742
478.742
480.597
495.626
481.073
481.886
494.958
496.155
480.886
482.212
476.359
463.058
461.682
475.989
475.779
461.26
460.936
476.126
461.66
461.594
475.499
473.076
460.929
459.085
475.906
461.574
461.605
473.096
336.686
457.795
421.311
476.072
461.605
461.611
339.013
473.81
421.762
457.88
476.295
461.621
461.643
473.173
475.8
459.291
461.03
477.153
461.657
462.458
476.084
477.472
461.245
462.7
456.615
442.172
440.792
456.165
455.762
440.26
440.011
456.563
440.795
440.78
455.906
454.49
440.282
439.638
456.606
440.796
440.83
453.366
379.928
438.92
282.006
456.596
440.828
440.836
380.001
453.469
280.777
438.978
456.584
440.807
440.775
454.514
456.004
439.64
440.393
457.379
440.761
441.48
456.182
457.089
440.414
441.207
435.289
419.355
418.009
434.732
434.576
417.438
417.958
435.264
417.993
417.89
434.875
434.471
418.054
418.222
435.294
417.853
417.738
433.845
258.61
417.837
206.628
435.318
417.728
417.893
257.104
433.902
204.927
417.882
435.271
417.914
417.968
434.479
434.989
418.231
418.05
435.977
417.973
418.633
434.984
435.569
417.954
417.436
411.985
399.265
399.011
411.282
413.478
398.531
397.702
411.827
399.002
398.873
413.527
413.426
397.829
396.233
411.63
398.81
398.703
413.14
132.493
395.414
313.339
411.808
398.699
398.837
131.842
413.136
311.403
395.357
411.936
398.888
398.982
413.435
413.526
396.192
397.819
412.638
398.985
398.985
413.478
411.257
397.627
398.515
395.071
383.15
383.27
394.605
395.635
382.881
382.124
394.97
383.321
383.389
395.821
394.048
382.095
380.765
394.813
383.359
383.352
393.223
419.608
380.378
377.554
394.936
383.349
383.389
419.723
393.165
377.526
380.34
395.061
383.406
383.298
394.005
395.811
380.735
382.088
394.793
383.241
383.163
395.625
394.587
382.124
382.862
379.356
367.575
367.705
378.992
380.188
367.402
366.509
379.553
367.748
367.916
380.166
379.025
366.469
366.244
379.553
367.944
368.012
378.71
376.635
366.264
366.142
379.572
368.008
367.985
376.611
378.679
366.295
366.25
379.398
367.944
367.738
379
380.16
366.228
366.471
379.245
367.685
367.596
380.189
378.972
366.517
367.383
363.845
351.9
352.091
363.595
364.592
352.009
351.333
364.037
352.151
352.446
364.603
365.245
351.383
350.941
364.109
352.476
352.556
365.209
363.514
350.836
349.597
364.095
352.549
352.517
363.103
365.19
349.596
350.812
363.882
352.476
352.144
365.226
364.611
350.919
351.389
363.695
352.07
351.922
364.601
363.574
351.344
351.987
348.14
336.086
336.341
348.123
349.423
336.345
336.012
348.531
336.406
336.675
349.509
350.123
336.159
337.078
348.677
336.746
336.903
350.034
349.053
337.206
337.992
348.621
336.897
336.792
349.054
350.01
337.993
337.185
348.187
336.704
336.398
350.103
349.516
337.071
336.167
347.974
336.319
336.108
349.435
348.101
336.028
336.321
332.327
319.815
319.892
332.328
333.967
320.002
319.081
332.61
319.892
319.893
334.163
336.118
319.086
318.006
332.82
319.852
319.763
336.256
337.164
317.97
316.841
332.712
319.762
319.767
337.166
336.235
316.841
317.939
332.384
319.758
319.846
336.111
334.168
317.98
319.06
332.083
319.857
319.828
333.983
332.301
319.058
319.941
315.738
303.322
303.133
315.871
316.853
303.413
302.104
315.583
303.067
302.932
316.87
316.781
302.04
301.204
315.373
302.875
302.853
316.723
315.593
301.112
300.619
315.406
302.828
302.925
315.593
316.693
300.625
301.075
315.622
302.961
303.058
316.738
316.823
301.195
302.046
315.745
303.13
303.354
316.897
315.814
302.116
303.405
299.004
286.731
286.573
299.252
300.049
286.974
285.498
298.767
286.455
286.273
300.032
299.174
285.341
284.949
298.697
286.232
286.248
299.097
298.669
284.926
285.422
298.761
286.246
286.272
298.67
299.058
285.422
284.899
298.932
286.316
286.479
299.165
299.935
284.961
285.483
299.263
286.573
286.849
300.027
299.252
285.501
286.951
282.341
269.665
269.607
282.719
282.243
269.911
269.607
282.087
269.538
269.427
282.164
281.899
269.545
269.999
282.059
269.485
269.572
282.015
282.333
270.037
270.017
282.114
269.576
269.529
282.334
282.008
270.017
270.037
282.295
269.523
269.61
282.003
282.28
270.001
269.662
282.624
269.645
269.786
282.362
282.669
269.761
269.907
265.308
252.268
252.332
265.691
265.335
252.487
252.734
265.221
252.424
252.767
265.382
265.793
252.766
252.753
265.493
252.766
252.762
265.783
265.767
252.75
252.744
265.436
252.762
252.766
265.767
265.784
252.744
252.75
265.366
252.767
252.411
265.793
265.433
252.753
252.766
265.471
252.295
252.322
265.431
265.715
252.737
252.537
247.996
236.654
236.705
248.154
248.314
236.726
236.726
248.306
236.727
236.725
248.308
248.298
236.723
236.722
248.302
236.724
236.724
248.296
248.292
236.72
236.719
248.304
236.724
236.724
248.292
248.296
236.719
236.72
248.152
236.725
236.727
248.298
248.308
236.722
236.723
247.924
236.681
236.65
248.317
248.184
236.726
236.724
512.439
498.978
499.029
512.19
512.026
499.296
499.147
545.858
498.691
540.39
511.661
502.442
498.858
489.268
120.23
232.566
116.147
485.964
184.162
471.557
186.475
246.877
115.866
244.133
183.556
488.277
186.637
471.499
512.53
547.058
499.403
502.842
511.958
489.333
498.945
513.257
499.681
500.216
512.132
512.2
499.17
499.302
494.465
480.712
480.283
494.845
494.626
481.032
480.559
536.771
479.873
497.116
494.386
484.405
480.223
469.393
117.236
388.13
139.959
466.213
188.964
448.854
209.759
262.633
140.127
406.61
189.35
465.872
211.034
448.678
494.814
494.351
480.485
484.503
494.405
469.496
480.235
495.781
480.891
482.086
494.65
494.849
480.572
481.034
475.433
461.206
460.568
476.271
475.724
461.49
460.865
481.68
460.318
456.8
475.356
464.348
460.443
449.373
154.986
456.143
168.44
443.432
220.389
428.662
243.862
450.916
169.27
456.179
221.797
443.308
243.989
428.507
475.628
457.049
460.718
464.438
475.366
449.401
460.425
477.362
461.107
462.347
475.734
476.271
460.851
461.487
455.488
440.219
439.779
456.382
455.782
440.438
439.847
452.25
439.845
437.637
455.36
444.425
439.639
429.501
156.645
437.094
119.913
423.915
240.866
409.453
198.828
449.73
120.154
437.14
240.284
423.715
197.57
409.136
455.666
437.616
440.095
444.423
455.329
429.404
439.579
456.289
440.313
440.378
455.759
456.377
439.808
440.432
434.353
417.331
417.603
434.892
434.326
417.459
417.174
432.517
417.772
416.119
434.068
424.382
416.925
407.924
110.657
420.982
89.7297
405.817
181.124
395.283
133.693
433.387
89.725
421.25
180.079
405.594
133.527
395.092
434.715
416.109
417.644
424.258
434.008
407.818
416.894
434.766
417.552
417.331
434.286
434.887
417.152
417.464
413.323
398.509
397.62
411.373
412.613
398.562
397.267
412.281
397.813
395.573
412.548
403.252
397.165
388.72
87.4353
394.178
142.406
398.382
109.336
382.437
90.362
409.796
141.824
394.104
109.57
398.305
90.6687
382.344
413.451
395.526
397.795
403.205
412.527
388.685
397.168
411.265
397.589
398.511
412.592
411.379
397.271
398.565
395.672
382.842
382.115
394.626
395.267
382.874
381.445
393.381
382.078
380.329
395.158
386.413
381.32
371.554
242.261
379.758
381.585
379.998
89.1246
364.677
78.6677
392.005
380.855
379.668
89.4547
379.892
79.4752
364.579
395.785
380.246
382.061
386.366
395.162
371.51
381.32
394.579
382.082
382.844
395.271
394.629
381.445
382.875
380.177
367.326
366.479
378.973
379.496
367.336
365.99
378.624
366.351
366.044
379.37
369.628
365.857
355.721
386.102
366.01
481.455
362.73
79.1517
352.726
77.6583
378.052
484.844
366.001
80.4655
362.651
82.6521
352.738
380.137
366.036
366.333
369.597
379.37
355.728
365.855
378.953
366.445
367.329
379.496
378.974
365.989
367.337
364.578
352.004
351.367
363.481
364.085
351.997
351.152
365
351.416
350.792
363.95
354.941
351.097
340.015
451.167
350.68
349.04
352.016
77.8402
336.524
487.457
364.929
349.039
350.65
83.8357
352.014
291.54
336.45
364.551
350.768
351.393
354.939
363.947
339.947
351.098
363.475
351.329
352.008
364.083
363.482
351.154
351.998
349.464
336.399
336.146
348.183
349.381
336.542
336.84
349.992
336.316
337.375
349.363
339.305
337.177
339.212
348.59
337.487
338.224
335.814
456.39
337.902
166.889
349.866
338.224
337.46
278.122
335.753
169.73
337.864
349.535
337.354
336.288
339.246
349.365
339.201
337.184
348.142
336.102
336.401
349.383
348.185
336.845
336.544
334.135
319.996
319.162
332.526
334.849
320.103
319.292
336.413
319.177
317.929
335.201
339.157
319.284
315.691
337.514
317.862
316.445
338.102
164.174
314.891
270.894
336.509
316.439
317.813
167.12
338.077
270.879
314.876
334.283
317.847
319.093
339.156
335.207
315.677
319.285
332.375
319.055
319.96
334.854
332.528
319.294
320.103
316.979
303.426
302.094
315.909
317.037
303.43
302.105
316.675
302.058
301.031
316.982
314.335
302
300.592
315.204
300.934
300.348
313.568
278.09
300.283
298.501
316.544
300.35
300.905
278.078
313.554
298.501
300.277
316.895
301.056
301.983
314.321
316.982
300.587
301.999
315.813
302.039
303.367
317.037
315.91
302.104
303.431
300.107
286.94
285.524
299.299
300.054
286.899
285.725
299.021
285.422
285.028
299.96
298.784
285.69
285.371
298.457
285.122
285.449
298.545
297.251
285.326
285.125
298.914
285.449
285.015
297.251
298.541
285.125
285.325
299.871
285.005
285.456
298.78
299.959
285.37
285.69
299.213
285.461
286.947
300.054
299.299
285.725
286.899
282.455
270.091
269.905
282.741
282.625
270.106
270.068
282.142
269.833
270.022
282.56
282.354
270.039
269.968
282.38
270.007
269.979
282.286
282.162
269.946
269.909
282.247
269.979
270.006
282.162
282.286
269.909
269.946
282.287
270.022
269.849
282.355
282.56
269.968
270.039
282.746
269.923
270.048
282.625
282.741
270.068
270.106
265.586
252.654
252.767
265.83
265.805
252.76
252.757
265.772
252.761
252.745
265.784
265.732
252.75
252.731
265.741
252.742
252.735
265.717
265.692
252.726
252.718
265.76
252.735
252.742
265.692
265.717
252.718
252.726
265.64
252.745
252.761
265.732
265.784
252.731
252.75
265.816
252.766
252.712
265.805
265.83
252.757
252.76
248.308
236.724
236.724
248.301
248.301
236.723
236.722
248.293
236.72
236.717
248.297
248.283
236.718
236.715
248.286
236.715
236.714
248.28
248.274
236.713
236.711
248.291
236.714
236.715
248.274
248.28
236.711
236.713
248.304
236.717
236.72
248.283
248.297
236.715
236.718
248.303
236.724
236.724
248.301
248.301
236.722
236.723
511.654
499.235
498.736
511.934
511.312
499.201
498.506
502.38
498.502
489.825
511.047
527.823
498.289
496.854
221.258
472.958
246.952
446.711
157.309
498.102
211.695
489.973
243.306
473.231
159.711
490.04
219.797
500.115
511.486
490.139
498.539
523.102
511.501
497.106
498.582
512.131
498.776
499.253
511.691
511.632
498.585
498.871
494.254
481.003
480.312
494.808
494.105
481.153
480.475
485.283
480.017
470.832
493.91
491.588
480.526
479.028
250.054
452.824
249.304
493.601
211.113
482.082
171.07
468.383
245.67
453.157
218.887
494.088
173.908
482.677
494.04
470.971
480.031
492.306
494.105
479.607
480.58
494.811
480.325
481.021
494.177
494.47
480.52
480.794
475.515
461.466
460.711
476.431
475.78
461.724
461.441
465.85
460.389
450.761
475.861
474.635
461.483
461.159
245.343
431.896
212.763
480.179
156.966
476.388
128.322
447.965
209.082
432.337
159.138
480.035
129.372
474.544
475.211
450.824
460.365
475.09
475.893
461.073
461.459
476.265
460.693
461.485
475.881
476.069
461.431
461.349
455.634
440.399
439.878
456.626
456.318
440.669
440.58
445.747
439.618
430.652
456.384
456.327
440.648
440.626
196.99
411.098
149.664
475.478
122.082
463.702
112.008
427.13
148.361
411.395
122.944
473.069
112.748
459.854
455.285
430.611
439.553
456.132
456.34
440.234
440.509
456.374
439.833
440.416
456.294
456.249
440.446
440.291
434.406
417.406
417.146
435.111
434.943
417.754
417.214
425.474
416.899
408.455
434.997
434.373
417.116
415.228
137.122
395.719
111.942
453.666
112.76
413.531
148.421
406.937
111.81
396.001
113.669
449.958
151.562
413.923
434.096
408.439
416.872
434.108
434.765
415.319
417.101
434.865
417.124
417.431
434.721
434.734
417.199
417.384
412.569
398.542
397.254
411.682
412.706
398.811
397.627
403.257
397.141
388.828
412.693
410.798
397.613
396.89
106.18
381.972
91.8082
409.673
322.156
396.629
416.336
397.988
91.9587
382.076
324.577
409.811
414.399
396.776
412.467
388.874
397.149
410.898
412.705
397.02
397.623
411.349
397.26
398.556
412.706
411.317
397.658
398.586
395.263
382.868
381.487
394.887
395.682
383.14
382.097
386.63
381.369
372.429
395.671
395.133
382.106
382.373
91.0524
365.156
88.1266
394.942
432.005
382.382
605.039
379.769
89.095
365.203
429.468
395.082
602.991
382.389
395.154
372.425
381.37
395.216
395.768
382.12
382.094
394.625
381.488
382.876
395.776
394.663
382.074
382.925
379.536
367.331
365.987
379.229
380.148
367.469
366.416
370.548
365.852
356.017
380.154
380.397
366.392
365.43
87.8987
353.009
68.4944
380.283
604.862
365.313
362.649
363.314
70.1002
353.033
602.634
380.24
362.696
365.552
379.42
356.001
365.85
380.013
380.131
365.683
366.375
378.975
365.985
367.334
380.114
379.02
366.394
367.312
364.08
351.993
351.142
363.61
364.533
351.989
351.271
355.218
351.085
340.716
364.511
364.478
351.327
350.789
67.1676
337.503
116.474
364.363
362.166
350.723
349.716
352.287
153.652
337.415
362.199
364.602
349.722
350.729
363.942
340.627
351.086
364.733
364.497
350.722
351.334
363.48
351.144
351.996
364.513
363.444
351.275
351.971
349.368
336.532
336.782
348.089
349.4
336.323
335.892
339.985
337.111
339.203
349.473
349.905
336.037
336.646
100.328
337.918
63.7528
349.828
348.853
336.693
337.76
336.697
64.4687
337.915
348.856
349.845
337.761
336.755
349.349
339.214
337.119
349.904
349.481
336.67
336.052
348.181
336.789
336.535
349.404
348.089
335.897
336.322
334.795
320.096
319.284
332.306
333.888
319.952
319.047
339.073
319.277
315.737
333.986
335.665
318.979
317.837
314.948
266.271
335.719
336.789
317.725
317.175
338.027
266.252
314.93
336.791
335.756
317.172
317.755
335.146
315.721
319.278
335.679
333.997
317.84
318.951
332.519
319.285
320.099
333.891
332.303
318.96
319.949
317.033
303.432
302.108
315.819
316.902
303.389
302.053
314.392
302.005
300.64
316.787
316.658
301.979
301.292
276.292
300.34
298.599
316.558
316
301.024
300.6
313.62
298.599
300.339
315.998
316.587
300.599
301.027
316.981
300.639
302.006
316.66
316.81
301.313
301.981
315.909
302.108
303.434
316.835
315.818
302.053
303.386
300.057
286.903
285.726
299.255
299.948
286.915
285.435
298.82
285.693
285.377
299.861
299.258
285.408
285.164
297.32
285.332
285.134
299.004
298.652
285.459
285.512
298.586
285.134
285.332
298.652
298.999
285.512
285.402
299.965
285.376
285.692
299.285
299.863
285.158
285.409
299.304
285.726
286.905
299.958
299.249
285.435
286.91
282.628
270.109
270.069
282.591
282.301
269.897
269.994
282.362
270.041
269.97
282.242
282.363
270.038
270.033
282.174
269.949
269.912
282.493
282.423
270.018
269.993
282.295
269.912
269.948
282.423
282.44
269.993
270.018
282.564
269.97
270.041
282.357
282.246
270.033
270.04
282.747
270.069
270.111
282.304
282.639
269.997
269.855
265.806
252.763
252.758
265.734
265.824
252.757
252.647
265.734
252.75
252.732
265.813
265.779
252.711
252.748
265.694
252.727
252.719
265.769
265.751
252.744
252.738
265.719
252.719
252.727
265.751
265.769
252.738
252.744
265.785
252.732
252.75
265.779
265.814
252.748
252.712
265.836
252.758
252.765
265.825
265.717
252.59
252.769
248.301
236.723
236.722
248.26
248.301
236.71
236.724
248.284
236.718
236.715
248.305
248.295
236.721
236.718
248.275
236.713
236.712
248.293
248.288
236.716
236.715
248.281
236.712
236.713
248.288
248.293
236.715
236.716
248.297
236.715
236.718
248.295
248.305
236.718
236.721
248.306
236.722
236.723
248.257
248.272
236.724
236.693
511.598
499.13
498.535
512.908
511.898
500.001
499.228
510.126
498.607
497.6
511.881
511.72
499.212
499.102
305.501
496.999
500.168
511.645
511.331
499.047
498.976
511.805
505.455
496.868
511.354
511.667
498.98
499.062
511.864
497.928
498.984
511.744
511.91
499.119
499.241
511.723
498.937
498.824
511.943
512.675
499.273
499.838
494.146
481.088
480.552
495.66
494.865
482.01
481.306
493.379
480.527
480.349
494.858
494.776
481.329
481.315
493.85
480.077
406.35
494.733
494.698
481.317
481.339
492.863
415.935
480.232
494.699
494.745
481.339
481.317
494.515
480.74
480.931
494.787
494.884
481.313
481.345
494.439
480.776
480.803
494.909
495.49
481.346
481.898
475.867
461.658
461.54
477.335
476.615
462.572
461.974
475.907
461.658
461.944
476.647
476.643
462.019
462.002
373.211
461.794
293.702
476.658
476.679
462.044
462.003
475.722
300.658
461.756
476.681
476.655
462.01
462.031
476.198
461.928
461.832
476.638
476.66
461.99
462.023
476.09
461.528
461.401
476.654
477.206
462.006
462.44
456.412
440.645
440.773
457.505
456.891
441.467
440.965
457.002
440.719
441.041
456.931
456.894
440.986
440.859
272.334
440.781
268.932
456.936
456.859
440.867
440.692
456.847
274.264
440.624
456.866
456.921
440.696
440.851
456.721
440.978
440.616
456.88
456.932
440.841
440.979
456.358
440.579
440.437
456.918
457.361
440.982
441.1
435.029
417.853
417.199
435.731
435.421
418.328
418.073
435.094
417.347
416.839
435.436
435.278
418.074
417.887
288.044
415.953
429.064
435.269
435.084
417.846
417.713
434.619
431.598
416.068
435.088
435.254
417.717
417.842
434.848
416.884
417.354
435.261
435.425
417.879
418.054
434.91
417.249
417.641
435.434
435.626
418.091
418.188
412.684
398.886
397.656
412.212
412.052
399.095
399.121
411.585
397.639
397.175
412.063
411.888
399.133
399.083
474.084
396.99
396.804
411.848
411.747
399.077
399.084
411.154
396.622
397.089
411.749
411.846
399.085
399.073
412.857
397.25
397.725
411.879
412.031
399.072
399.111
411.587
397.849
398.749
412.066
412.18
399.105
399.059
395.71
383.19
382.13
395.279
395.177
383.47
383.351
395.378
382.13
382.511
395.234
395.203
383.46
383.51
396.158
382.571
402.214
395.204
395.224
383.509
383.511
395.334
401.411
382.455
395.224
395.2
383.511
383.51
395.86
382.246
382.108
395.194
395.212
383.509
383.455
394.825
382.105
383.053
395.191
395.032
383.41
383.164
380.181
367.462
366.5
379.54
379.463
367.708
367.713
380.512
366.503
365.835
379.498
379.588
367.723
367.794
397.153
365.712
363.694
379.576
379.563
367.8
367.78
380.415
363.731
365.719
379.563
379.584
367.781
367.829
380.148
365.821
366.472
379.593
379.526
367.83
367.735
379.136
366.475
367.397
379.489
379.258
367.698
367.461
364.558
351.947
351.236
363.769
363.83
351.863
352.03
364.877
351.273
350.875
363.835
363.901
352.052
352.188
363.001
350.814
350.212
363.925
363.908
352.239
352.356
364.767
350.216
350.855
363.909
363.965
352.356
352.229
364.543
350.9
351.273
363.941
363.824
352.175
352.053
363.522
351.245
351.931
363.776
363.589
352.038
351.866
349.351
336.241
335.752
347.926
348.077
336.047
336.257
349.982
335.865
336.422
348.111
348.26