/*--------------------------------*- C++ -*----------------------------------*\
| =========                 |                                                 |
| \\      /  F ield         | OpenFOAM: The Open Source CFD Toolbox           |
|  \\    /   O peration     | Version:  2206                                  |
|   \\  /    A nd           | Website:  www.openfoam.com                      |
|    \\/     M anipulation  |                                                 |
\*---------------------------------------------------------------------------*/
FoamFile
{
    version     2.0;
    format      ascii;
    arch        "LSB;label=32;scalar=64";
    class       volScalarField;
    location    "600";
    object      yPlus;
}
// * * * * * * * * * * * * * * * * * * * * * * * * * * * * * * * * * * * * * //

dimensions      [0 0 0 0 0 0 0];

internalField   uniform 0;

boundaryField
{
    movingWall
    {
        type            calculated;
        value           uniform 0;
    }
    front
    {
        type            calculated;
        value           uniform 0;
    }
    back
    {
        type            calculated;
        value           uniform 0;
    }
    sfera1
    {
        type            calculated;
        value           nonuniform List<scalar> 
274
(
2315.6
2213.82
9103.84
9096.71
14203.3
11726.7
14640.2
11606.9
8919.31
9616.46
10251.3
1640.69
8999.02
9531.33
10094.1
5289.83
5810.91
1667.57
2693.77
1276.55
1270
2735.76
5882.78
9594.3
5050.47
9541.74
5278.47
5043.96
2883.36
1731.56
950.964
2083.9
2087.49
711.869
1584.48
1426.22
713.467
1119.3
5263.18
2959.4
463.814
1076.56
1034.08
4094.68
959.092
3759.24
2126.8
3721.52
2072.67
1118.09
5263.02
1106.04
4864.04
5362.28
5360.57
2175.91
2108.39
1873.84
1013.1
1049.44
4845.2
665.684
887.551
441.477
2439.62
1486.26
4690.6
2440.03
1510.48
4695.99
4809.8
1609.27
1505.86
2291.03
793.641
786.111
2476.71
1713.41
1482.1
1619.04
2878.79
1025.84
1177.31
348.672
1604.05
1486.43
2278.12
1966.53
797.374
707.857
1117.85
4792.99
1964.42
3374.22
4135.99
2263.3
3643.26
5511.97
1013.14
1003.33
808.444
937.082
540.869
282.174
376.229
333.445
503.491
707.343
194.646
1539.3
1083.85
2487.63
2078.75
307.532
2470.02
2284.18
1209.34
432.674
1886.37
2506.51
2282.08
1207.03
464.08
1870.05
2506.81
1952.62
788.465
2886.36
703.691
1105.68
4791.73
1975.63
4057.04
2264.78
5505.97
5135
4133.61
3992.58
5024.13
4135.37
5022.79
2917.88
1742.53
956.265
1612.27
1289.52
357.888
334.394
3041.34
1108.4
805.712
525.806
1142.41
3275.88
4863.58
943.274
433.999
3954.29
1040.72
811.536
3274.84
421.244
2271.78
1013.57
2136.54
526.696
1047.59
1216.87
1963.98
531.071
1198.04
694.485
944.733
609.09
3641.2
3734.86
3620.16
3729.47
1542.74
916.498
1993.79
1456.21
852.186
347.838
821.006
2706.98
2902.37
1742.61
1567.42
1713.38
1817.79
2314.95
1996.29
2854.05
1240.2
1318.62
816.457
1657.17
901.936
1525.09
914.544
1503.85
1987.24
1810.19
2309.05
1998.05
1625.22
796.449
880.242
1060.89
1171.4
214.867
2653.76
2077.34
846.2
1009.49
641.202
310.783
377.164
227.471
1970.13
3360.04
4839.82
2109.31
717.424
655.582
439.883
445.62
927.09
1079.54
5142.38
3737.48
3076.85
634.609
7423.03
1837.84
813.385
2523.02
2345.39
591.754
2507.23
208.072
3369.76
2652.74
2077.25
1969.73
3352.45
4839.05
2103.54
441.747
931.504
1078.7
3735.38
3073.87
634.914
7418.36
3651.31
3273.43
6453.58
3610.7
3615.69
5008.8
4257.45
5375.17
5230.42
3268.19
6430.09
3987.44
3588.68
3614.11
5008.42
4258.29
5369.07
5216.89
)
;
    }
    sfera2
    {
        type            calculated;
        value           nonuniform List<scalar> 
280
(
2233.63
2270.02
4474
12006.1
14505.3
5448.37
9905.01
9358.39
4493.43
11836.7
14337.4
5443.13
9833.47
9344.6
2164.4
9463.03
10487.9
9914.19
5993.41
1273.51
5534.34
2194.18
9425.71
10399.8
9870.11
5978.79
1267.5
5530.54
798.112
808.171
1540.5
1532.93
1534.74
4310.07
1603.25
2166.8
1721.58
1608.28
1631.27
2166.98
1756.65
1606.35
922.277
1049.18
1236.14
840.971
2217.68
3397.08
3408.62
2307.45
4279.53
1981.61
1640.46
1944.1
4012.44
933.155
1047.98
839.577
1244.72
2223.55
3393.19
2306.14
3413.83
4284.7
1985.09
1946.4
1645.34
4011.54
1668.59
696.591
739.027
1000.37
1678.18
713.7
795.411
1013.52
1997.44
532.996
550.171
1842.2
1602.91
1675.77
1688.24
2412.86
2088.31
566.145
547.621
1859.22
1598.8
1669.83
1703.38
283.468
1092
1235.08
1821.9
462.423
511.897
495.601
800.195
2267.95
2259.09
2395.96
885.477
740.497
1227.38
999.666
185.999
1154.82
447.089
287.187
2442.96
2861.51
3706.84
1093.87
271.059
457.884
1259.29
4348.6
2280.93
3698.87
854.127
1468.62
3908.37
945.773
1865.12
2381.67
3478.38
463.539
1504.82
2853.41
4258.54
1764.47
262.909
3192.73
1097.69
1237.41
1826.13
2047.42
470.234
515.329
806.862
495.254
2269.93
2397.94
894.569
731.722
1233.27
999.501
212.546
1151.39
479.351
302.822
2449.63
2872.54
3712.1
1102.53
268.17
1261.32
450.944
4357.72
2319.35
3693.67
845.976
1473.44
3893.58
944.828
1865.37
2382.78
3470.37
466.818
1488.23
2840.05
6559.92
4259.38
1740.35
1537.79
895.846
4308.25
4967.34
4040.8
1582.32
5127.42
5767.65
6589.35
5054.34
5398.03
5281.72
5119.8
888.788
4976.98
4053.57
1585.93
5134.29
5771.79
5053.86
5395.1
5282.44
5103.98
1023.13
1120.17
2333.03
993.619
2043.55
1088.99
1087.33
2298.6
1060.32
2432
2175.52
2256.85
3800.15
3187.97
2116.28
516.67
1862.77
1154.07
2019.18
1990.57
1272.53
678.279
2653.43
702.027
1086.24
430.076
801.068
610.288
625.65
818.655
612.863
1262.14
644.672
2424.75
3052.15
987.147
4419.54
2268.56
401.647
3727.45
4813.39
4065.85
3375.24
4134.59
3419.53
5196.7
2192.75
2235.23
3813.18
2115.92
2257.8
519.909
1869.17
2641.16
1101.66
2011.32
1995.21
1245.43
659.977
698.205
1075.02
466.195
795.166
665.63
606.445
826.375
608.693
1276.09
643.596
2425.49
976.391
3074.02
4440.23
2252.12
446.358
3706.25
4127.4
4061.41
3373.98
4815.38
3414.77
5197.01
)
;
    }
}


// ************************************************************************* //
