/*--------------------------------*- C++ -*----------------------------------*\
| =========                 |                                                 |
| \\      /  F ield         | OpenFOAM: The Open Source CFD Toolbox           |
|  \\    /   O peration     | Version:  2206                                  |
|   \\  /    A nd           | Website:  www.openfoam.com                      |
|    \\/     M anipulation  |                                                 |
\*---------------------------------------------------------------------------*/
FoamFile
{
    version     2.0;
    format      ascii;
    arch        "LSB;label=32;scalar=64";
    class       volScalarField;
    location    "600";
    object      yPlus;
}
// * * * * * * * * * * * * * * * * * * * * * * * * * * * * * * * * * * * * * //

dimensions      [0 0 0 0 0 0 0];

internalField   uniform 0;

boundaryField
{
    movingWall
    {
        type            calculated;
        value           uniform 0;
    }
    front
    {
        type            calculated;
        value           uniform 0;
    }
    back
    {
        type            calculated;
        value           uniform 0;
    }
    sfera1
    {
        type            calculated;
        value           nonuniform List<scalar> 
274
(
2315.52
2213.58
9103.83
9096.71
14203.3
11726.7
14640.2
11606.9
8919.34
9616.48
10251.3
1640.56
8998.94
9531.28
10094.1
5289.82
5810.91
1667.63
2693.82
1276.55
1270
2735.68
5882.78
9594.29
5050.46
9541.73
5278.47
5043.95
2883.33
1731.68
950.97
2083.9
2087.49
711.879
1584.47
1426.22
713.479
1119.4
5263.22
2959.4
463.829
1076.56
1034.09
4094.69
959.099
3759.24
2126.8
3721.53
2072.67
1118.15
5263
1105.91
4864.06
5362.27
5360.6
2175.9
2108.37
1873.84
1013.07
1049.33
4845.23
665.687
887.559
441.484
2439.63
1486.27
4690.6
2440.03
1510.48
4695.99
4809.76
1609.32
1505.82
2290.76
793.632
786.104
2476.7
1713.4
1482.1
1619.04
2878.77
1025.83
1177.28
348.677
1604.34
1486.42
2278.24
1966.57
797.309
707.783
1117.79
4793.1
1964.43
3374.26
4136.05
2263.4
3643.27
5512
1013.14
1003.33
808.446
937.091
540.871
282.186
376.249
333.438
503.515
707.342
194.659
1539.3
1083.86
2487.63
2078.75
307.541
2470.02
2284.18
1209.34
432.681
1886.37
2506.51
2282.08
1207.03
464.09
1870.05
2506.81
1952.73
788.498
2886.4
703.714
1105.77
4791.68
1975.55
4056.96
2264.64
5505.92
5134.98
4133.63
3992.58
5024.13
4135.39
5022.83
2917.88
1742.53
956.272
1612.26
1289.53
357.504
334.752
3041.34
1108.41
806.182
525.816
1142.42
3275.93
4863.61
943.283
433.687
3954.29
1040.72
811.389
3274.86
421.428
2271.78
1013.56
2136.53
526.644
1047.43
1216.78
1963.98
531
1198.27
694.489
944.739
609.096
3641.2
3734.86
3620.18
3729.48
1542.62
916.423
1993.82
1456.45
852.189
347.833
821.01
2707
2902.3
1742.6
1567.43
1713.38
1817.86
2314.78
1996.4
2854.05
1240.21
1318.63
816.096
1656.68
901.553
1525.37
914.505
1503.81
1987.39
1810.54
2309.33
1998.31
1625.6
796.72
880.477
1060.89
1171.4
214.558
2654
2077.63
846.204
1009.49
641.205
310.795
377.192
227.486
1970.24
3360.1
4839.86
2109.45
717.434
655.581
439.884
445.356
927.332
1079.82
5142.4
3737.55
3076.98
634.582
7423.05
1837.84
813.396
2523.02
2345.39
591.723
2507.23
208.077
3369.68
2652.66
2077.17
1969.76
3352.45
4839.06
2103.54
441.817
931.53
1078.68
3735.37
3073.85
634.896
7418.34
3651.27
3273.44
6453.57
3610.7
3615.7
5008.79
4257.44
5375.16
5230.41
3268.21
6430.1
3987.45
3588.69
3614.13
5008.44
4258.3
5369.08
5216.9
)
;
    }
    sfera2
    {
        type            calculated;
        value           nonuniform List<scalar> 
280
(
2234.18
2270.17
4474.05
12006.1
14505.3
5448.38
9905.01
9358.39
4493.36
11836.7
14337.3
5443.13
9833.47
9344.6
2164.55
9463.1
10487.9
9914.22
5993.41
1273.51
5534.35
2194.17
9425.64
10399.8
9870.06
5978.78
1267.5
5530.54
797.85
808.004
1540.2
1532.85
1534.53
4310.04
1603.35
2166.85
1721.79
1608.31
1631.28
2166.99
1756.67
1606.36
922.286
1049.18
1236.15
840.975
2217.6
3397.04
3408.57
2307.36
4279.52
1981.61
1640.47
1944.1
4012.41
933.157
1047.98
839.58
1244.72
2223.47
3393.15
2306.05
3413.79
4284.7
1985.09
1946.4
1645.34
4011.52
1668.53
695.999
738.501
1000.26
1678.28
713.243
795.436
1013.43
1997.47
533.011
550.162
1842.38
1602.9
1675.75
1688.35
2412.48
2088.34
566.162
547.633
1859.21
1598.8
1669.82
1703.38
283.539
1091.85
1234.93
1821.9
462.37
511.907
495.577
800.312
2267.83
2258.86
2395.73
885.494
740.51
1227.41
999.672
186.024
1154.82
447.123
287.204
2442.9
2861.45
3706.8
1093.72
271.24
457.976
1259.11
4348.61
2280.93
3698.87
854.137
1468.62
3908.37
945.773
1865.12
2381.67
3478.38
463.544
1504.82
2853.39
4258.52
1764.47
263.41
3192.62
1098.02
1237.46
1826.43
2047.17
470.418
515.368
807.113
495.212
2270.22
2398
894.571
731.742
1233.27
999.507
212.548
1151.39
479.355
302.822
2449.54
2872.44
3712.04
1102.41
268.324
1261.16
450.987
4357.64
2319.35
3693.67
845.981
1473.44
3893.56
944.828
1865.37
2382.78
3470.36
466.817
1488.23
2840.04
6559.9
4259.36
1740.35
1537.59
895.835
4308.24
4967.33
4040.79
1582.31
5127.39
5767.65
6589.35
5054.33
5398.02
5281.72
5119.79
888.668
4976.89
4053.52
1586.09
5134.22
5771.73
5053.83
5395.07
5282.42
5103.95
1023.11
1120.24
2333.05
993.625
2043.26
1089
1087.36
2298.62
1060.32
2431.8
2175.49
2256.82
3800.12
3187.96
2116.1
516.514
1862.88
1154.52
2019.19
1990.51
1272.78
678.511
2653.44
702.029
1086.24
430.092
801.121
610.341
625.644
818.527
612.872
1262.04
644.665
2424.76
3052.23
987.161
4419.56
2268.56
401.603
3727.44
4813.36
4065.82
3375.22
4134.58
3419.51
5196.68
2192.49
2235
3813.04
2115.96
2257.8
519.921
1869.44
2641.16
1101.54
2011.25
1995.23
1245.3
660.057
698.202
1075.02
466.187
795.176
665.63
606.45
826.257
608.866
1275.92
643.656
2425.49
976.399
3073.74
4440.06
2252.12
446.327
3706.23
4127.38
4061.38
3373.97
4815.34
3414.75
5196.97
)
;
    }
}


// ************************************************************************* //
