/*--------------------------------*- C++ -*----------------------------------*\
| =========                 |                                                 |
| \\      /  F ield         | OpenFOAM: The Open Source CFD Toolbox           |
|  \\    /   O peration     | Version:  2206                                  |
|   \\  /    A nd           | Website:  www.openfoam.com                      |
|    \\/     M anipulation  |                                                 |
\*---------------------------------------------------------------------------*/
FoamFile
{
    version     2.0;
    format      ascii;
    arch        "LSB;label=32;scalar=64";
    class       volScalarField;
    location    "0";
    object      yPlus;
}
// * * * * * * * * * * * * * * * * * * * * * * * * * * * * * * * * * * * * * //

dimensions      [0 0 0 0 0 0 0];

internalField   uniform 0;

boundaryField
{
    movingWall
    {
        type            calculated;
        value           uniform 0;
    }
    front
    {
        type            calculated;
        value           uniform 0;
    }
    back
    {
        type            calculated;
        value           uniform 0;
    }
    sfera
    {
        type            calculated;
        value           nonuniform List<scalar> 
336
(
2836.66
2836.66
2836.66
2830.53
2829.52
2830.52
2829.5
2830.53
2829.51
2830.53
2829.52
2844.06
2829.21
2829.82
2844.06
2829.22
2848.99
2846.45
2844.07
2829.21
2849.09
2846.45
2844.05
2829.21
2829.82
2849.01
2846.45
2849.1
2846.45
2844.24
2839.2
2844.23
2839.2
2839.2
2844.24
2839.36
2839.91
2832.69
2839.35
2839.9
2832.61
2839.35
2839.89
2832.59
2839.38
2839.91
2832.71
2844.35
2842.6
2824.65
2846.83
2846.82
2844.34
2823.41
2824.66
2842.6
2844.36
2823.4
2824.67
2842.61
2846.83
2844.34
2842.61
2824.65
2831.24
2836.59
2843
2831.56
2829.87
2825.73
2836.18
2833.65
2837.38
2832.31
2843.31
2831.73
2824.76
2831.52
2836.54
2843
2831.57
2829.87
2825.74
2836.17
2833.54
2837.36
2832.19
2829.49
2843.31
2826.64
2827.27
2850.11
2824.56
2827.4
2824.76
2836.53
2843
2831.55
2829.86
2825.73
2828.64
2836.13
2833.53
2832.15
2837.34
2829.51
2843.31
2823.7
2850.1
2827.26
2824.55
2831.54
2836.6
2843.01
2831.57
2825.73
2826.8
2836.21
2833.66
2832.34
2837.38
2843.3
2826.64
2827.28
2850.12
2823.71
2827.26
2850.1
2836.66
2841.8
2841.8
2841.79
2841.79
2848.44
2843.81
2827.3
2841.2
2848.44
2829.82
2843.82
2827.3
2841.2
2848.43
2829.82
2843.81
2827.3
2841.2
2848.46
2843.81
2827.31
2841.19
2828.08
2823.83
2839.19
2844.24
2823.4
2823.84
2823.83
2823.84
2823.4
2835.04
2823.72
2835.04
2828.86
2835.05
2823.72
2828.87
2822.56
2835.04
2822.63
2825.47
2847.19
2824.23
2846.82
2824.82
2829.6
2831.52
2842.47
2844.76
2825.68
2828.27
2842.91
2848.37
2825.47
2847.19
2829.59
2831.23
2842.48
2844.76
2825.69
2824.24
2842.91
2828.27
2848.37
2825.48
2847.19
2829.6
2842.47
2844.77
2825.69
2824.24
2831.52
2828.28
2842.91
2848.38
2825.46
2847.19
2824.24
2824.84
2829.59
2842.48
2844.75
2825.68
2842.91
2828.26
2848.37
2831.72
2825.04
2843.29
2828.65
2847.87
2842.36
2842.47
2845.59
2843.77
2842.59
2840.85
2841.95
2826.64
2849.75
2827.38
2843.96
2826.8
2829.5
2827.14
2826.56
2824.99
2847.85
2828.64
2843.29
2842.36
2845.61
2842.48
2843.78
2849.77
2843.97
2842.6
2840.85
2841.95
2826.81
2827.13
2826.55
2822.54
2828.81
2845.55
2827.5
2841.73
2842.24
2828.07
2835.48
2843.05
2832.54
2841.57
2840.08
2831.24
2831.72
2824.98
2843.29
2847.85
2842.36
2842.46
2845.59
2843.77
2842.6
2840.85
2841.95
2849.75
2827.38
2843.96
2826.79
2826.55
2827.13
2826.64
2822.6
2845.54
2841.71
2827.51
2842.24
2828.08
2835.49
2843.06
2841.57
2840.09
2832.54
2831.22
2831.72
2825.05
2843.29
2829.86
2828.64
2847.86
2842.36
2842.48
2845.61
2843.78
2842.59
2840.85
2841.95
2849.77
2827.4
2843.97
2827.13
2829.51
2826.55
2827.51
2841.72
2824.56
2842.27
2835.57
2845.54
2843.07
2832.54
2841.56
2840.09
2828.92
2827.51
2824.55
2841.7
2842.25
2828.08
2835.56
2845.55
2843.06
2832.54
2841.58
2840.1
)
;
    }
}


// ************************************************************************* //
