/*--------------------------------*- C++ -*----------------------------------*\
| =========                 |                                                 |
| \\      /  F ield         | OpenFOAM: The Open Source CFD Toolbox           |
|  \\    /   O peration     | Version:  2206                                  |
|   \\  /    A nd           | Website:  www.openfoam.com                      |
|    \\/     M anipulation  |                                                 |
\*---------------------------------------------------------------------------*/
FoamFile
{
    version     2.0;
    format      ascii;
    arch        "LSB;label=32;scalar=64";
    class       volScalarField;
    location    "400";
    object      ReThetat;
}
// * * * * * * * * * * * * * * * * * * * * * * * * * * * * * * * * * * * * * //

dimensions      [0 0 0 0 0 0 0];

internalField   nonuniform List<scalar> 
187974
(
525.785
534.377
536.786
538.566
538.541
536.636
534.776
523.975
507.33
515.611
517.428
519.14
519.109
517.293
516.095
505.35
496.463
503.974
505.141
506.705
506.671
505.062
504.554
494.414
484.715
491.635
490.79
491.867
491.838
490.984
492.512
482.524
469.556
477.359
476.337
475.827
475.795
476.364
478.25
467.241
452.931
460.933
460.34
458.426
458.382
460.148
461.588
450.605
435.286
442.634
441.618
440.139
440.083
441.462
443.406
433.187
416.028
422.265
421.143
420.781
420.694
420.992
423.119
413.706
400.471
402.514
402.326
402.995
402.932
402.258
403.161
398.6
387.367
387.958
388.047
388.875
388.839
387.955
388.629
385.426
371.525
373.324
373.254
373.611
373.6
373.225
373.653
369.927
357.018
357.831
357.892
357.8
357.811
357.891
358.512
355.15
340.897
341.883
341.912
341.929
341.93
341.905
342.506
339.108
324.855
325.848
325.83
325.802
325.795
325.789
326.405
323.202
308.613
309.524
309.458
309.437
309.427
309.431
309.909
307.399
292.165
292.935
292.885
292.876
292.874
292.876
292.854
292.218
276.047
275.974
275.956
275.961
275.961
275.957
275.955
275.768
258.481
258.575
258.553
258.549
258.549
258.553
258.575
258.513
240.203
240.273
240.262
240.261
240.261
240.262
240.274
240.197
223.575
223.608
223.606
223.605
223.605
223.607
223.609
223.574
530.418
567.864
565.459
563.931
563.96
565.625
568.013
530.381
508.296
545.753
543.6
542.085
542.116
543.774
545.909
507.726
466.939
547.744
543.793
539.392
538.802
541.164
545.898
554.38
448.716
525.669
524.779
521.04
520.514
522.703
525.283
525.267
431.337
502.226
504.612
503.022
502.52
503.87
500.71
503.75
418.84
481.346
479.54
483.699
483.86
481.678
479.87
483.287
406.147
459.249
457.864
463.359
463.905
460.58
458.018
461.217
396.001
435.16
434.808
439.36
439.669
437.386
434.34
437.179
386.401
410.293
410.902
412.792
412.74
412.994
410.134
412.695
376.519
393.986
393.503
393.357
393.39
393.641
393.675
394.816
366.932
377.369
377.545
377.568
377.573
377.566
377.554
377.77
357.531
361.685
361.825
361.843
361.832
361.851
361.719
362.129
346.103
345.896
346.007
346.069
346.081
346.058
345.937
346.354
329.86
329.964
330.018
330.014
330.014
329.996
329.996
330.474
313.681
313.689
313.622
313.495
313.435
313.453
313.547
314.194
297.342
297.222
297.079
297.024
297.019
297.044
297.106
297.66
280.636
280.486
280.387
280.364
280.365
280.381
280.44
280.868
263.452
263.328
263.276
263.252
263.252
263.267
263.309
263.414
245.631
245.592
245.626
245.62
245.618
245.629
245.555
245.677
223.424
223.46
223.482
223.481
223.481
223.482
223.452
223.434
512.689
544.813
524.16
520.347
520.408
524.188
544.872
512.585
489.724
542.501
543.851
544.141
544.132
543.732
541.156
489.432
424.936
526.596
525.347
525.337
525.392
525.332
525.391
548.973
421.604
513.301
511.939
511.96
512.017
511.983
511.895
524.808
410.995
496.275
494.895
494.882
494.934
494.911
494.862
507.429
402.212
477.976
476.588
476.58
476.635
476.605
476.546
490.151
393.637
458.218
456.796
456.778
456.826
456.803
456.751
470.85
387.332
436.804
435.32
435.254
435.284
435.289
435.281
440.514
378.609
413.449
412.015
411.928
411.952
411.973
411.981
409.547
371.158
394.691
395.241
395.273
395.326
395.289
395.172
393.032
366.293
379.303
379.573
379.823
379.916
379.821
379.46
377.278
355.645
363.695
363.9
363.985
363.96
364.032
363.84
361.625
344.636
347.938
348.144
348.459
348.494
348.46
348.08
345.917
329.873
332.046
332.355
332.608
332.735
332.576
332.274
330.01
313.713
315.719
315.697
315.471
315.338
315.396
315.668
313.773
297.309
299.229
298.932
298.699
298.668
298.792
299.003
297.346
280.604
282.499
282.252
282.054
282.053
282.146
282.364
280.666
263.321
265.357
265.245
265.392
265.496
265.342
265.362
263.406
245.617
247.879
248.162
248.304
248.302
248.306
247.961
245.761
223.481
226.723
226.727
226.726
226.726
226.726
226.729
223.483
509.827
533.282
464.047
414.453
414.557
464.299
532.326
511.143
488.828
542.342
465.111
417.777
410.863
414.165
488.06
488.25
428.975
525.126
450.454
399.372
395.211
401.133
482.829
544.99
425.03
511.539
469.996
390.149
389.882
390.539
477.161
521.302
414.596
494.559
469.825
378.391
377.597
378.808
477.863
502.717
405.05
476.182
464.747
366.223
365.393
366.869
471.964
483.034
397.274
456.31
451.975
355.488
352.296
355.205
456.644
457.495
389.237
434.726
432.683
345.171
322.651
344.905
435.461
435.122
381.013
411.223
414.962
337.806
342.457
337.705
413.292
410.867
372.584
394.647
396.394
343.144
217.015
342.987
395.683
393.807
363.69
379.074
380.752
360.013
109.329
359.66
380.543
377.604
353.411
363.516
364.704
364.241
471.531
364.569
364.672
361.616
342.383
348.122
349.468
349.732
346.033
349.837
349.354
346.055
330.256
332.364
334.269
336.452
337.742
336.305
334.049
330.217
313.739
315.846
316.962
316.597
315.14
316.616
316.909
313.843
297.296
299.279
300.179
298.959
298.468
299.065
299.965
297.377
280.637
282.744
282.406
282.272
282.39
282.093
282.328
280.759
263.607
265.846
265.63
265.765
265.745
265.776
265.612
263.655
245.877
248.271
248.306
248.292
248.287
248.294
248.309
245.947
223.506
226.725
226.726
226.725
226.725
226.725
226.727
223.506
512.079
531.739
463.301
410.033
410.026
463.103
535.513
508.383
490.626
542.143
470.307
403.839
340.27
413.826
489.617
491.188
428.429
524.529
456.309
388.114
315.631
400.667
485.078
536.957
424.523
511.634
479.442
382.443
240.677
388.032
482.265
514.185
413.818
494.573
478.772
369.709
211.831
375.69
481.453
496.675
404.411
476.203
470.568
357.201
194.246
363.518
472.591
478.093
396.554
456.327
454.021
345.089
185.769
352.027
455.36
457.918
388.501
434.738
433.001
333.985
183.361
341.815
433.831
435.856
380.32
411.23
411.501
329.291
180.32
333.388
411.623
411.615
371.983
394.657
394.825
333.908
171.354
339.786
394.956
394.23
363.243
379.083
379.704
350.563
91.1053
357.185
379.772
377.949
353.648
363.534
364.128
350.379
171.634
353.956
364.244
361.812
343.168
348.167
349.29
339.018
63.8801
341.543
349.318
346.161
330.327
332.514
335.108
337.733
338.866
334.777
330.287
313.772
315.928
317.052
313.945
276.845
314.661
317.093
313.916
297.306
299.322
300.004
298.659
297.409
298.89
300.094
297.412
280.667
282.757
282.582
282.318
282.199
282.383
282.643
280.759
263.614
265.839
265.792
265.727
265.703
265.742
265.812
263.698
245.888
248.306
248.299
248.283
248.277
248.286
248.304
245.958
223.506
226.724
226.726
226.725
226.724
226.725
226.727
223.506
513.515
544.735
521.367
516.978
517.849
523.298
547.183
510.891
490.113
541.881
477.428
460.808
460.286
461.859
488.573
493.961
422.079
523.852
470.332
452.897
452.411
454.346
484.311
540.091
426.458
512.096
470.642
412.492
409.865
414.072
474.257
515.829
413.589
494.859
471.275
401.571
399.928
403.599
475.179
494.658
403.957
476.368
466.064
391.609
389.336
393.617
470.09
475.822
395.664
456.523
452.729
381.173
378.41
382.413
455.623
455.743
386.865
434.965
433.339
368.817
369.126
370.085
434.535
433.753
375.54
411.764
414.132
337.937
339.737
338.857
412.96
410.122
371.573
395.025
395.874
344.757
368.018
345.338
395.924
393.638
360.635
379.344
380.353
359.332
608.763
358.815
380.265
377.735
354.956
363.617
364.623
364.695
362.115
364.84
364.603
361.524
344.712
348.038
349.374
349.721
348.754
349.845
349.346
345.972
329.89
332.223
333.797
335.422
336.23
335.363
333.74
330.087
313.693
315.84
316.872
316.715
316.327
316.772
316.78
313.846
297.27
299.268
299.951
299.103
298.92
299.281
300.034
297.348
280.515
282.635
282.333
282.201
282.459
282.087
282.372
280.595
263.563
265.601
265.795
265.8
265.785
265.809
265.676
263.61
245.858
248.169
248.264
248.301
248.297
248.303
248.081
245.888
223.453
226.67
226.727
226.727
226.726
226.727
226.731
223.451
525.226
564.286
560.662
559.119
558.491
561.129
568.954
540.459
498.459
541.336
538.667
537.071
536.586
538.391
547.383
512.968
431.286
525.19
525.876
526.039
526.167
525.776
524.99
542.976
435.845
509.639
509.679
509.896
509.996
509.95
510.066
519.517
418.433
492.561
492.88
492.794
492.811
492.77
492.913
502.258
405.935
474.204
474.354
474.289
474.306
474.255
474.403
484.34
401.813
454.264
454.373
454.311
454.322
454.252
454.402
462.963
393.731
432.582
432.718
432.665
432.658
432.569
432.69
437.048
387.416
408.913
409.15
409.117
409.139
409.005
409.068
412.366
378.352
393.191
393.333
393.351
393.385
393.289
393.286
393.597
369.979
377.484
377.636
377.67
377.69
377.647
377.585
377.723
359.473
361.721
361.886
361.936
361.951
361.898
361.789
361.458
345.765
345.9
346.089
346.189
346.234
346.123
346.033
345.828
329.929
329.973
330.117
330.112
330.157
330.083
330.106
329.934
313.696
313.596
313.496
313.343
313.363
313.375
313.629
313.723
297.201
297.022
296.997
296.852
296.85
296.901
297.074
297.252
280.465
280.335
280.29
280.163
280.151
280.188
280.362
280.531
263.384
263.233
263.131
263.121
263.1
263.102
263.221
263.453
245.685
245.456
245.434
245.492
245.483
245.492
245.427
245.575
223.385
223.392
223.41
223.41
223.41
223.411
223.388
223.404
536.388
543.325
555.515
557.762
557.761
554.816
537.065
523.775
518.915
525.678
535.182
536.262
536.223
535.007
519.51
506.518
505.054
511.228
522.075
522.705
522.677
522.123
509.892
497.006
488.407
502.05
505.85
506.067
506.041
505.951
498.962
483.478
468.29
482.643
488.593
488.648
488.626
488.542
485.866
467.934
451.266
469.314
469.795
469.779
469.747
469.775
467.836
451.33
435.901
447.635
449.391
449.379
449.33
449.333
447.207
433.91
416.392
425.679
427.197
427.19
427.133
427.101
426.057
416.343
400.733
404.501
405.07
405.066
405.046
405.013
405.706
400.473
386.842
389.983
389.28
389.274
389.268
389.257
389.688
385.765
371.66
374.004
373.515
373.511
373.51
373.518
374.013
372.008
355.774
358.262
357.749
357.752
357.751
357.753
358.238
355.879
339.931
342.406
341.882
341.896
341.896
341.888
342.396
340.094
324.021
326.311
325.762
325.763
325.762
325.767
326.301
324.179
308.185
309.84
309.429
309.422
309.422
309.435
309.831
308.347
292.827
292.823
292.882
292.877
292.877
292.887
292.817
293.011
275.733
276.004
275.971
275.967
275.967
275.974
275.988
275.895
258.392
258.585
258.559
258.554
258.553
258.567
258.59
258.522
240.146
240.271
240.265
240.264
240.264
240.28
240.311
240.227
223.587
223.609
223.606
223.606
223.606
223.607
223.611
223.577
511.916
500.647
499.253
512.756
473.522
500.106
474.531
511.96
499.266
499.261
471.555
415.5
472.037
406.474
512.023
499.257
499.308
414.166
411.725
405.767
403.491
511.994
499.306
499.288
411.812
414.766
403.603
406.141
511.933
499.285
499.255
416.09
471.673
407.346
472.618
512.861
499.233
500.166
473.555
513.468
474.554
500.773
494.882
482.675
481.28
495.704
474.412
481.873
471.887
494.887
481.294
481.287
471.935
403.726
469.32
395.763
494.936
481.285
481.34
403.343
400.906
394.618
392.762
494.915
481.34
481.317
401.04
403.92
392.826
396.574
494.882
481.312
481.277
405.101
472.521
398.014
470.123
495.778
481.257
482.125
474.437
496.401
471.926
482.533
476.571
463.304
461.877
476.271
469.834
461.481
460.127
476.581
461.895
461.883
467.277
393.174
458.457
386.126
476.634
461.883
461.932
391.854
389.599
384.704
380.426
476.611
461.933
461.915
389.674
393.841
380.465
385.237
476.569
461.907
461.874
395.382
468.139
386.956
458.692
477.399
461.85
462.67
469.879
477.807
460.204
462.99
456.781
442.315
440.85
456.348
455.682
440.309
440.492
456.779
440.856
440.815
454.129
383.829
439.354
376.094
456.825
440.805
440.84
382.221
377.686
374.182
369.798
456.81
440.839
440.837
377.727
382.279
369.774
374.193
456.774
440.836
440.831
383.943
454.475
376.098
439.717
457.575
440.816
441.594
455.88
457.315
440.702
441.306
435.318
419.435
418.023
434.742
434.942
417.403
417.724
435.269
418.015
417.949
433.924
373.492
417.335
366.034
435.284
417.921
417.941
371.573
367.452
364.301
361.367
435.286
417.939
417.954
367.413
371.601
361.284
364.596
435.292
417.966
417.983
373.536
434.27
366.214
417.348
436.073
417.982
418.693
435.169
435.626
417.696
417.397
412.024
399.341
399.117
411.257
413.615
398.584
397.746
411.956
399.136
399.135
415.147
339.078
398.404
345.53
411.955
399.126
399.167
338.439
344.291
344.497
385.168
411.962
399.164
399.149
343.771
338.502
384.108
344.615
411.982
399.147
399.111
339.304
415.077
345.782
398.37
412.705
399.087
399.056
413.59
411.225
397.668
398.561
395.2
383.238
383.417
394.683
395.752
383.002
382.517
395.277
383.499
383.696
396.413
346.689
382.704
360.182
395.329
383.715
383.82
345.62
394.728
359.227
362.284
395.297
383.817
383.743
393.955
345.738
371.641
359.336
395.219
383.711
383.475
346.931
396.384
360.299
382.693
394.867
383.387
383.25
395.729
394.659
382.512
382.98
379.485
367.613
367.746
379.108
380.588
367.462
366.676
379.803
367.789
367.926
380.751
362.13
366.648
365.923
379.919
367.935
367.931
361.292
333.042
365.76
726.989
379.857
367.927
367.978
340.978
361.389
671.714
365.76
379.552
367.956
367.78
362.233
380.741
365.916
366.652
379.324
367.726
367.634
380.585
379.085
366.686
367.443
363.859
351.892
352.057
363.632
364.716
351.998
351.275
363.993
352.107
352.346
364.73
364.974
351.307
350.888
363.964
352.355
352.385
364.729
523.851
350.784
348.699
364.03
352.378
352.398
510.355
364.728
348.699
350.771
363.892
352.377
352.101
364.966
364.74
350.878
351.315
363.718
352.038
351.914
364.728
363.613
351.288
351.978
348.101
336.071
336.305
348.104
349.352
336.325
335.961
348.429
336.364
336.603
349.419
349.986
336.101
336.947
348.509
336.666
336.806
349.879
347.542
337.074
338.096
348.502
336.8
336.713
347.541
349.862
338.098
337.053
348.138
336.632
336.356
349.973
349.427
336.939
336.109
347.961
336.283
336.092
349.365
348.084
335.976
336.303
332.295
319.808
319.873
332.312
333.925
320
319.082
332.55
319.87
319.854
334.116
336.014
319.087
318.013
332.741
319.809
319.709
336.151
337.267
317.975
316.787
332.646
319.708
319.724
337.27
336.132
316.788
317.946
332.347
319.72
319.824
336.007
334.122
317.989
319.063
332.069
319.838
319.821
333.941
332.286
319.061
319.94
315.723
303.322
303.128
315.872
316.858
303.421
302.117
315.552
303.06
302.92
316.875
316.789
302.054
301.215
315.33
302.861
302.835
316.73
315.547
301.123
300.625
315.372
302.81
302.911
315.548
316.702
300.63
301.086
315.605
302.948
303.052
316.749
316.83
301.207
302.06
315.741
303.125
303.355
316.903
315.816
302.129
303.412
299.001
286.734
286.574
299.26
300.062
286.981
285.506
298.759
286.455
286.272
300.045
299.186
285.349
284.957
298.685
286.231
286.245
299.108
298.677
284.934
285.43
298.752
286.244
286.27
298.678
299.069
285.43
284.908
298.929
286.315
286.479
299.177
299.948
284.969
285.491
299.264
286.573
286.852
300.04
299.26
285.509
286.958
282.341
269.667
269.608
282.725
282.249
269.915
269.61
282.087
269.539
269.428
282.171
281.906
269.548
270.002
282.058
269.485
269.572
282.022
282.339
270.041
270.021
282.114
269.577
269.53
282.34
282.015
270.021
270.041
282.296
269.524
269.611
282.01
282.287
270.005
269.666
282.627
269.645
269.788
282.368
282.676
269.764
269.912
265.309
252.269
252.333
265.694
265.337
252.489
252.735
265.221
252.425
252.767
265.385
265.796
252.767
252.754
265.493
252.766
252.762
265.786
265.77
252.751
252.745
265.436
252.762
252.766
265.77
265.787
252.745
252.751
265.367
252.767
252.411
265.796
265.436
252.754
252.767
265.473
252.296
252.323
265.434
265.718
252.738
252.54
247.996
236.647
236.698
248.156
248.315
236.72
236.72
248.306
236.72
236.719
248.309
248.299
236.717
236.715
248.302
236.718
236.717
248.297
248.293
236.714
236.712
248.304
236.717
236.718
248.293
248.297
236.712
236.714
248.152
236.719
236.72
248.299
248.309
236.715
236.717
247.924
236.675
236.644
248.318
248.185
236.72
236.718
475.909
498.943
477.01
511.709
482.021
499.026
482.242
390.114
469.779
381.318
479.139
387.68
479.78
378.774
389.855
381.298
380.516
382.184
281.441
372.807
259.128
390.48
380.753
381.645
284.445
382.37
261.282
372.681
472.157
381.722
472.804
387.953
479.651
378.775
479.828
513.379
477.924
500.393
481.909
511.693
482.135
499.017
476.78
480.91
473.588
494.649
481.433
481.015
475.929
378.244
466.728
369.136
479.242
375.704
474.047
366.674
377.443
369.372
368.456
369.652
251.298
360.289
227.467
378.651
368.447
369.645
252.974
369.521
227.481
360.174
472.613
369.798
469.764
375.718
479.135
366.701
474.024
496.015
474.281
482.382
481.355
494.641
475.881
481.011
471.267
461.43
460.868
476.289
472.834
461.534
460.598
366.396
456.253
357.997
471.082
363.697
459.234
355.14
365.358
357.904
355.935
357.172
219.981
348.029
199.99
366.64
356.119
357.879
219.561
357.062
198.868
347.944
467.668
358.203
457.864
363.725
471.065
355.17
459.232
477.69
461.196
462.658
472.796
476.287
460.578
461.535
456.375
440.295
440.978
456.409
455.74
440.376
439.578
355.747
437.969
348.129
454.502
352.387
438.997
344.735
352.007
347.576
331.474
345.04
194.461
336.539
180.984
354.94
333.33
346.994
193.319
344.964
180.32
336.499
453.6
347.282
438.906
352.418
454.504
344.767
438.982
456.476
441.12
440.453
455.724
456.411
439.589
440.378
435.384
417.289
417.332
434.8
433.894
417.339
416.314
345.694
417.195
339.226
433.233
342.333
415.8
336.041
320.866
338.433
276.712
333.84
177.451
326.588
169.619
344.463
279.608
337.61
177.074
333.815
170.16
326.613
433.629
338.183
417.091
342.366
433.215
336.087
415.797
434.794
417.493
417.278
433.901
434.801
416.314
417.331
413.433
398.549
397.615
411.266
411.665
398.569
396.878
338.096
398.382
342.399
411.506
333.329
396.726
338.24
340.929
341.74
228.16
329.43
153.582
332.791
171.11
337.473
234.463
341.324
154.071
329.478
171.734
332.746
414.996
341.592
398.372
333.352
411.498
338.183
396.709
411.213
397.562
398.543
411.654
411.256
396.863
398.559
395.735
382.968
382.507
394.665
394.957
382.984
381.683
343.667
382.703
358.258
394.806
339.733
381.587
355.476
212.455
357.593
117.52
334.182
169.177
349.704
107.031
342.542
119.307
357.105
169.901
334.114
108.092
349.544
396.39
357.266
382.694
339.66
394.787
355.336
381.568
394.642
382.466
382.966
394.94
394.655
381.665
382.978
380.582
367.394
366.651
379.088
379.777
367.413
366.191
360.434
366.533
365.525
379.688
357.352
366.084
354.514
108.51
365.237
264.35
351.579
101.443
350.953
102.94
359.374
267.754
365.259
102.195
351.429
104.828
351.027
380.745
365.54
366.518
357.225
379.671
354.573
366.085
379.073
366.617
367.398
379.762
379.084
366.191
367.415
364.706
351.997
351.309
363.537
364.25
351.997
351.116
364.545
351.341
350.75
364.14
353.364
351.066
341.891
464.385
350.636
347.274
349.746
103.669
339.184
81.1318
364.255
347.276
350.62
105.457
349.814
92.5455
339.121
364.687
350.739
351.319
353.418
364.141
341.835
351.067
363.52
351.271
352.002
364.251
363.539
351.119
352.001
349.393
336.38
336.092
348.171
349.322
336.53
336.783
349.852
336.255
337.255
349.299
341.218
337.107
338.685
346.034
337.375
338.491
338.544
79.2499
337.23
164.479
349.712
338.492
337.348
92.9383
338.47
167.67
337.193
349.444
337.235
336.228
341.156
349.3
338.674
337.114
348.127
336.048
336.383
349.324
348.175
336.789
336.534
334.095
319.998
319.167
332.523
334.823
320.12
319.348
336.323
319.184
317.936
335.174
338.875
319.354
315.994
337.74
317.867
316.373
337.728
164.829
315.223
271.538
336.427
316.368
317.821
167.443
337.708
271.524
315.211
334.238
317.858
319.101
338.878
335.181
315.984
319.357
332.362
319.062
319.962
334.83
332.526
319.351
320.122
316.988
303.436
302.111
315.93
317.093
303.451
302.142
316.684
302.075
301.047
317.051
314.609
302.042
300.667
315.144
300.95
300.359
313.866
278.646
300.362
298.597
316.554
300.36
300.921
278.634
313.855
298.597
300.357
316.907
301.073
302
314.599
317.053
300.662
302.042
315.818
302.055
303.378
317.095
315.932
302.143
303.452
300.123
286.949
285.534
299.318
300.089
286.914
285.743
299.037
285.432
285.038
299.998
298.849
285.709
285.396
298.469
285.132
285.458
298.613
297.332
285.352
285.154
298.93
285.458
285.025
297.332
298.609
285.154
285.351
299.887
285.015
285.466
298.845
299.998
285.396
285.709
299.224
285.471
286.956
300.089
299.319
285.743
286.914
282.463
270.096
269.91
282.752
282.639
270.112
270.075
282.152
269.837
270.027
282.576
282.374
270.047
269.977
282.39
270.013
269.985
282.307
282.185
269.956
269.92
282.257
269.985
270.012
282.185
282.307
269.92
269.956
282.296
270.027
269.854
282.374
282.576
269.977
270.048
282.755
269.928
270.053
282.639
282.753
270.075
270.112
265.59
252.656
252.768
265.836
265.811
252.763
252.76
265.776
252.762
252.747
265.79
265.74
252.753
252.734
265.745
252.744
252.737
265.725
265.7
252.73
252.721
265.765
252.737
252.744
265.7
265.725
252.721
252.73
265.644
252.747
252.762
265.74
265.79
252.734
252.753
265.82
252.768
252.714
265.811
265.836
252.76
252.763
248.309
236.718
236.718
248.303
248.303
236.717
236.716
248.294
236.714
236.711
248.299
248.285
236.712
236.709
248.287
236.709
236.708
248.283
248.277
236.707
236.706
248.292
236.708
236.709
248.277
248.283
236.706
236.707
248.306
236.711
236.714
248.285
248.299
236.709
236.712
248.304
236.718
236.718
248.303
248.303
236.716
236.717
482.163
498.952
482.182
511.99
478.605
499.275
479.33
387.912
479.319
378.669
470.009
389.946
470.423
380.886
238.161
372.843
215.393
389.789
391.542
381.01
383.06
382.553
218.061
372.867
391.546
390.671
383.126
381.899
479.442
378.75
479.451
390.538
469.47
381.512
470.307
511.646
482.124
498.962
477.923
511.589
478.636
498.871
481.341
480.929
475.681
494.888
478.912
481.227
474.878
375.565
473.46
366.406
470.178
377.918
467.962
369.149
209.429
360.286
195.971
378.038
380.245
369.184
371.701
369.652
197.666
360.201
380.182
378.909
371.463
369.951
478.714
366.494
473.486
378.521
470.19
369.841
467.425
494.581
475.666
480.935
478.259
494.484
474.396
480.82
472.545
461.449
460.229
476.498
472.261
461.744
461.184
363.382
458.724
354.686
465.597
366.199
456.968
358.025
192.819
348.026
186.484
365.87
367.839
357.561
356.701
357.089
187.162
348.025
367.707
366.945
357.292
357.821
470.515
354.768
458.695
366.799
465.368
357.851
456.666
476.208
460.224
461.456
471.906
476.09
460.965
461.332
455.363
440.308
439.467
456.625
456.441
440.622
440.771
351.893
438.504
344.149
452.282
355.009
438.338
346.844
185.187
336.594
183.671
354.616
352.571
346.219
334.295
345.071
183.437
336.707
353.649
354.896
338.173
346.568
453.977
344.176
438.461
354.825
452.003
346.644
438.424
456.334
439.443
440.315
456.271
456.212
440.37
440.203
433.86
417.297
416.318
435.063
434.768
417.758
417.077
341.727
415.697
335.337
433.41
344.183
416.393
337.251
183.696
326.748
185.371
343.612
327.808
336.794
310.216
334.062
184.186
326.874
332.692
343.982
317.42
337.239
432.954
335.353
415.643
343.942
432.738
336.955
416.299
434.744
416.282
417.302
434.657
434.64
417.068
417.324
411.656
398.558
396.895
411.707
412.819
398.871
397.588
333.374
396.743
338.265
414.332
335.744
397.822
338.973
174.879
332.429
180.334
335.822
366.22
338.742
364.793
329.295
181.334
332.633
364.403
336.225
377.416
339.442
411.463
338.154
396.725
335.592
414.183
338.701
397.8
411.234
396.878
398.557
412.826
411.272
397.605
398.602
394.975
382.979
381.7
394.965
395.662
383.246
382.234
339.739
381.609
355.325
395.861
340.041
382.304
353.937
171.026
348.585
94.8613
339.819
351.58
353.624
182.076
333.941
95.3662
348.705
367.994
340.589
189
354.692
394.805
355.128
381.588
339.855
395.918
353.56
382.266
394.655
381.68
382.979
395.722
394.7
382.188
383.002
379.789
367.408
366.18
379.333
380.293
367.539
366.499
357.198
366.067
354.986
380.347
355.857
366.476
364.992
90.8399
351.492
145.344
355.528
175.052
364.788
360.833
350.544
164.678
351.598
181.476
356.591
360.896
365.242
379.687
355.051
366.071
355.496
380.305
365.333
366.467
379.085
366.181
367.414
380.241
379.099
366.482
367.366
364.242
351.995
351.112
363.662
364.603
351.989
351.257
353.906
351.062
342.325
364.58
364.302
351.309
350.617
155.65
339.743
67.3233
364.143
360.787
350.529
348.912
350.477
66.7999
339.711
360.84
364.514
348.927
350.553
364.132
342.27
351.064
364.634
364.576
350.563
351.322
363.539
351.115
352.001
364.589
363.484
351.268
351.974
349.315
336.52
336.726
348.08
349.376
336.313
335.858
341.598
337.04
338.764
349.445
349.737
335.998
336.539
63.9293
337.387
62.0212
349.641
348.169
336.575
337.445
338.978
62.2068
337.374
348.18
349.678
337.447
336.639
349.293
338.768
337.049
349.75
349.459
336.565
336.015
348.173
336.733
336.525
349.387
348.083
335.865
336.314
334.769
320.116
319.343
332.301
333.863
319.966
319.074
338.846
319.35
316.049
333.956
335.578
319.009
317.906
315.289
266.886
335.621
336.507
317.796
317.292
337.74
266.868
315.275
336.508
335.661
317.29
317.827
335.118
316.035
319.353
335.595
333.97
317.91
318.981
332.518
319.345
320.12
333.868
332.301
318.987
319.964
317.092
303.455
302.147
315.836
316.932
303.408
302.081
314.675
302.049
300.72
316.821
316.729
302.01
301.346
276.858
300.426
298.706
316.63
316.117
301.08
300.671
313.93
298.705
300.425
316.114
316.66
300.67
301.083
317.054
300.72
302.051
316.732
316.844
301.368
302.013
315.932
302.148
303.457
316.866
315.835
302.082
303.405
300.093
286.918
285.745
299.272
299.975
286.928
285.451
298.889
285.712
285.403
299.89
299.307
285.426
285.188
297.409
285.359
285.164
299.054
298.715
285.484
285.541
298.659
285.164
285.359
298.714
299.05
285.541
285.427
300.005
285.402
285.712
299.335
299.892
285.182
285.427
299.325
285.744
286.921
299.986
299.266
285.451
286.923
282.643
270.116
270.077
282.602
282.315
269.904
270.002
282.384
270.05
269.98
282.258
282.384
270.046
270.043
282.199
269.959
269.924
282.515
282.448
270.029
270.005
282.318
269.924
269.959
282.448
282.462
270.005
270.029
282.581
269.98
270.05
282.378
282.262
270.043
270.049
282.759
270.077
270.118
282.318
282.65
270.005
269.862
265.812
252.765
252.76
265.739
265.83
252.76
252.65
265.742
252.753
252.735
265.82
265.787
252.714
252.751
265.703
252.731
252.722
265.777
265.76
252.748
252.742
265.727
252.722
252.731
265.76
265.777
252.742
252.748
265.792
252.735
252.753
265.788
265.821
252.752
252.715
265.841
252.76
252.768
265.831
265.723
252.593
252.772
248.304
236.717
236.717
248.262
248.303
236.705
236.718
248.286
236.712
236.71
248.307
248.298
236.715
236.712
248.277
236.707
236.706
248.296
248.291
236.71
236.709
248.283
236.706
236.707
248.291
248.296
236.709
236.71
248.299
236.71
236.712
248.298
248.307
236.712
236.715
248.308
236.717
236.717
248.26
248.274
236.718
236.687
475.441
499.275
476.249
512.91
512.009
500.037
499.29
413.069
471.249
404.38
512.045
511.983
499.316
499.248
409.893
404.252
402.382
511.993
511.997
499.25
499.266
413.032
402.338
405.08
511.999
511.981
499.264
499.257
470.297
405.803
471.082
511.963
511.978
499.25
499.3
511.918
475.013
498.929
511.963
512.649
499.291
499.847
476.001
481.119
472.785
495.707
494.909
482.046
481.279
401.605
468.04
394.444
494.933
494.865
481.301
481.234
399.88
393.722
392.32
494.866
494.883
481.233
481.26
402.781
392.215
395.469
494.88
494.874
481.254
481.242
470.935
396.398
468.382
494.867
494.925
481.234
481.305
494.523
472.171
480.81
494.918
495.507
481.303
481.903
470.481
461.575
460.344
477.365
476.564
462.554
461.863
392.184
457.228
384.943
476.586
476.519
461.883
461.812
389.397
383.931
381.627
476.518
476.55
461.813
461.845
392.574
381.24
384.057
476.541
476.527
461.839
461.821
466.465
385.189
457.414
476.519
476.591
461.811
461.891
476.07
460.084
461.299
476.591
477.207
461.894
462.402
455.757
440.508
440.643
457.48
456.769
441.44
440.857
382.1
438.472
373.411
456.786
456.709
440.871
440.769
378.819
372.141
371.808
456.712
456.742
440.771
440.787
381.242
370.993
372.011
456.738
456.719
440.789
440.777
452.914
373.536
438.512
456.71
456.793
440.773
440.872
456.234
440.319
440.285
456.8
457.322
440.88
441.044
434.734
417.801
417.034
435.704
435.332
418.357
418.056
369.893
416.485
363.356
435.347
435.239
418.075
417.97
369.868
362.523
361.815
435.239
435.247
417.962
417.957
368.922
361.35
362.609
435.251
435.245
417.961
417.963
432.851
363.354
416.384
435.242
435.343
417.966
418.048
434.763
417.113
417.568
435.349
435.588
418.067
418.193
412.766
398.925
397.654
412.256
412.056
399.141
399.162
338.567
397.845
344.339
412.087
411.992
399.187
399.179
340.88
343.539
362.731
411.985
411.986
399.187
399.218
338.746
359.128
344.434
411.987
411.981
399.217
399.175
414.027
344.424
397.877
411.98
412.044
399.159
399.154
411.542
397.826
398.764
412.06
412.2
399.136
399.097
395.726
383.269
382.262
395.337
395.228
383.535
383.418
345.434
382.31
358.137
395.3
395.31
383.537
383.626
371.492
357.343
592.337
395.326
395.368
383.639
383.668
345.478
591.953
357.42
395.366
395.313
383.667
383.636
395.999
356.643
382.27
395.292
395.266
383.62
383.525
394.859
382.216
383.119
395.233
395.08
383.47
383.212
380.315
367.508
366.568
379.603
379.525
367.745
367.741
359.93
366.572
365.691
379.569
379.685
367.752
367.811
607.15
365.511
362.359
379.684
379.691
367.812
367.775
359.351
362.474
365.553
379.69
379.691
367.777
367.848
380.308
365.605
366.548
379.688
379.593
367.853
367.766
379.204
366.547
367.443
379.547
379.304
367.727
367.49
364.614
351.947
351.222
363.798
363.845
351.866
352.016
364.852
351.254
350.699
363.848
363.894
352.034
352.142
362.025
350.616
349.552
363.911
363.873
352.185
352.281
364.746
349.562
350.676
363.874
363.958
352.281
352.179
364.606
350.742
351.26
363.941
363.84
352.134
352.038
363.556
351.238
351.934
363.793
363.61
352.027
351.868
349.331
336.233
335.723
347.923
348.058
336.04
336.239
349.811
335.833
336.328
348.086
348.209
336.28
336.421