/*--------------------------------*- C++ -*----------------------------------*\
| =========                 |                                                 |
| \\      /  F ield         | OpenFOAM: The Open Source CFD Toolbox           |
|  \\    /   O peration     | Version:  2206                                  |
|   \\  /    A nd           | Website:  www.openfoam.com                      |
|    \\/     M anipulation  |                                                 |
\*---------------------------------------------------------------------------*/
FoamFile
{
    version     2.0;
    format      ascii;
    arch        "LSB;label=32;scalar=64";
    class       volScalarField;
    location    "0";
    object      yPlus;
}
// * * * * * * * * * * * * * * * * * * * * * * * * * * * * * * * * * * * * * //

dimensions      [0 0 0 0 0 0 0];

internalField   uniform 0;

boundaryField
{
    movingWall
    {
        type            calculated;
        value           uniform 0;
    }
    front
    {
        type            calculated;
        value           uniform 0;
    }
    back
    {
        type            calculated;
        value           uniform 0;
    }
    sfera1
    {
        type            calculated;
        value           nonuniform List<scalar> 
274
(
7749.92
7764.23
14840.3
14831.2
11740.2
10474.2
11534.3
9911.75
10640.1
10192
9904.71
7259.66
10727.9
10234.9
10002.7
7885.93
7349.94
7263.43
6730.2
3926.07
3926.45
6733.56
7363.64
13760.4
9415.4
13719.1
7889.21
9423.68
3688.01
7020.03
2602.14
3338.53
3338.52
5029.98
2686.89
2898.14
5030.1
5393.62
4956.03
4315.63
2246.76
2864.69
2820.84
4478.64
2357.42
4468.42
2328.58
4439.58
2291.94
5393.48
4955.69
4651.43
4849.41
5333.4
5333.77
3192
2519.6
2559.22
5350.37
4781.24
5990.34
2231.62
2701.39
2446.58
2899.24
2954.93
5005.82
2899.68
2954.12
5006.26
5992.29
5609.68
7294.92
5203.57
1929.2
2368.06
4522.06
2822.95
2795.94
2920.31
4742.12
3036.58
2942.27
2448.57
5609.96
7295.41
5201.06
5607.24
4883.3
6036.78
8312.26
4743.72
4452.98
4636.17
6090.2
6075.74
4863.35
5336.17
2305.41
1887.96
2265.89
2468.6
2223.93
2942.55
2840.64
2744.89
2761.76
2658.75
2601.49
1994.03
2439.85
2852.29
2687.93
2214.13
3079.78
2737.78
1598.96
2631.49
2051.95
3319.49
2736.51
1598.71
2625.96
2044.31
3317.46
5607.7
4883.31
8639.79
6035.73
8312.58
4743.65
4453.21
6084.16
6076.48
5336.27
5382.65
5421.83
5315.59
4884.65
5422.95
4886.49
3690.22
7020.5
2601.85
2686.95
2896.94
3479.7
3480.54
4310.75
4651.31
3994.39
2246.74
2818.94
3451.91
4850.15
2816.47
2841.09
4245.04
2348.67
3994.42
3452.2
2841.23
3196.21
5351.84
2520.63
4995.6
4782.4
5277.47
2561.53
4994.65
5275.87
2231.31
2698.84
2443.99
7930.01
5284.04
7930.33
5284.29
5105.55
3719.98
5442.24
9902.44
1931.29
2449.43
2363.17
4525.25
8641.23
2823.16
2796.01
2920.95
5998.81
5808.24
5893.64
4741.99
3036.37
2942.79
3473.01
4866.06
4043.7
5105.61
3719.95
9901.36
5443.1
5997.72
5807.88
5893.54
4866.15
3473.06
4043.28
2297.95
1875.33
3470.76
3991.37
3469.48
2265.74
2468.36
2223.03
2931.11
2793.15
2733.88
2839.24
3443.01
4743.13
2837.87
2760.31
2644.2
2596.19
2840.6
2840.96
2840.28
5382.8
3696.23
3462.91
4454.71
8434.97
1846.73
2325.73
2637.99
2669.47
2179.94
3014.29
3470.79
4636.23
3991.34
3469.51
2839.32
3441.9
4744.46
2837.92
2840.68
2841.09
2840.33
3696.67
3462.85
4455.4
8421.73
4863.08
8607.2
8964.64
6917.79
5544.22
5664.85
4975.73
6622.34
7161.27
8611.26
8960.42
5314.92
6915.86
5545.64
5664.66
4975.81
6623.48
7161.11
)
;
    }
    sfera2
    {
        type            calculated;
        value           nonuniform List<scalar> 
280
(
7657.66
7640.99
7641.23
10574.4
11918.2
9559.8
13805.7
14839.1
7650.02
10467.4
11787.1
9572.33
13752.8
14826.3
6922.58
10802.4
9975.91
10288.2
7356.97
3835.93
7923.47
6906.69
10718.3
9900.14
10239.6
7346.6
3836.9
7925.76
4741.02
4742
8088.14
8092.72
5170.44
4856.68
2440.73
3361.88
2852.93
2380.85
2442.16
3362.63
2854.53
2381.19
2443.58
2595.65
2696.11
2230.36
2839.51
3470.11
3463.13
2839.84
4937.54
3303.22
2937.42
2826.78
4007.18
2443.59
2595.68
2230.36
2696.16
2839.51
3468.9
2839.66
3463.24
4938.76
3303.42
2827.31
2937.68
4007.67
7053.25
4973.14
5937.6
3341.51
7052.32
4975.5
5936.88
3343.99
4412.71
1804.34
2245.38
2880.93
2674.99
2783.47
2786.82
11429
4415.2
1805.82
2240.29
2881.4
2675.04
2783.59
2786.92
4611.37
5101.64
5048.72
5112.29
3724.4
2841.41
3174.12
3463.19
5660.17
5664.52
6337.67
2222.79
2245.05
2466.79
2265.31
2734.09
2820.66
2793.55
2930.4
3163
3654.1
3712.84
2839.29
2840.44
2840.04
2839.91
5375.77
2646.71
4248.62
2328.53
1755.18
7550.66
1474.79
2536
3314.48
4441.38
2624.95
1929.73
8287.23
5400.47
2200.74
4611.97
4171.14
5101.77
5047.68
5112.54
6034.67
3723.98
2841.33
3462.57
3174.06
5660.23
6338.99
2222.8
2245.05
2466.82
2265.31
2734.1
2820.68
2793.54
2930.42
3162.87
3654.15
3712.7
2839.32
2840.22
2839.63
2840.14
5375.12
2647.17
4248.58
2328.59
1746.96
7555.44
1475.37
2536.89
3314.67
4441.34
2625.06
1924.39
8289.96
9158.23
5401.96
2193.95
5171.63
4426.95
4860.78
4881.02
4448.73
5399.17
4869.67
6736.8
9166.15
5786.04
5468.62
7191.13
6132.07
4426.55
4879.86
4446.86
5399.13
4868.94
6733.11
5782.79
5465.21
7196
6118.13
2920.16
2894.87
4724.75
3030.06
6033.09
2920.59
2894.88
4724.82
3030.14
11431.6
4233.84
4282.63
4300.96
4171.97
5721.95
3718.99
4907.56
8378.67
8847.11
5667.18
6077.46
4895.26
4310.22
2033.75
1784.33
2596.3
2815.32
2759.55
2644.72
2831.37
3673.65
3387.02
3165.76
3018.49
6081.71
2350.33
5935.64
2677.15
2181.29
8210.38
4748.8
4774.1
5401.76
5537.91
5308.59
5023.94
4233.82
4282.4
4300.71
5721.73
5665.13
3719.22
4908.73
4310.06
8376
8850.94
5665.33
6075.59
4893.59
2033.92
1776.24
2596.32
2815.3
2759.57
2644.72
2831.17
3674.55
3386.62
3165.79
3018.81
2350.36
6082.26
5935.9
2677.61
2181.3
8209.29
5535.85
4776.9
5402.06
4748.71
5309.6
5022.88
)
;
    }
}


// ************************************************************************* //
