/*--------------------------------*- C++ -*----------------------------------*\
| =========                 |                                                 |
| \\      /  F ield         | OpenFOAM: The Open Source CFD Toolbox           |
|  \\    /   O peration     | Version:  2206                                  |
|   \\  /    A nd           | Website:  www.openfoam.com                      |
|    \\/     M anipulation  |                                                 |
\*---------------------------------------------------------------------------*/
FoamFile
{
    version     2.0;
    format      ascii;
    arch        "LSB;label=32;scalar=64";
    class       volScalarField;
    location    "3";
    object      thickness;
}
// * * * * * * * * * * * * * * * * * * * * * * * * * * * * * * * * * * * * * //

dimensions      [0 0 0 0 0 0 0];

internalField   uniform 0;

boundaryField
{
    movingWall
    {
        type            fixedValue;
        value           uniform 0;
    }
    front
    {
        type            fixedValue;
        value           uniform 0;
    }
    back
    {
        type            fixedValue;
        value           uniform 0;
    }
    fuselage
    {
        type            fixedValue;
        value           nonuniform List<scalar> 
6561
(
0
0
0
0
0
0
0
0
0
0
0
0
0
0
0
0
0
0
0
0
0
0
0
0
0
0
0
0
0
0
0
0
0
0
0
0
0
0
0
0
0
0
0
0
0
0
0
0
0
0
0
0
0
0
0
0
0
0
0
0
0
0
0
0
0
0
0
0
0
0
0
0
0
0
0
0
0
0
0
0
0
0
0
0
0
0
0
0
0
0
0
0
0
0
0
0
0
0
0
0
0
0
0
0
0
0
0
0
0
0
0
0
0
0
0
0
0
0
0
0
0
0
0
0
0
0
0
0
0
0
0
0
0
0
0
0
0
0
0
0
0
0
0
0
0
0
0
0
0
0
0
0
0
0
0
0
0
0
0
0
0
0
0
0
0
0
0
0
0
0
0
0
0
0
0
0
0
0
0
0
0
0
0
0
0
0
0
0
0
0
0
0
0
0
0
0
0
0
0
0
0
0
0
0
0
0
0
0
0
0
0
0
0
0
0
0
0
0
0
0
0
0
0
0
0
0
0
0
0
0
0
0
0
0
0
0
0
0
0
0
0
0
0
0
0
0
0
0
0
0
0
0
0
0
0
0
0
0
0
0
0
0
0
0
0
0
0
0
0
0
0
0
0
0
0
0
0
0
0
0
0
0
0
0
0
0
0
0
0
0
0
0
0
0
0
0
0
0
0
0
0
0
0
0
0
0
0
0
0
0
0
0
0
0
0
0
0
0
0
0
0
0
0
0
0
0
0
0
0
0
0
0
0
0
0
0
0
0
0
0
0
0
0
0
0
0
0
0
0
0
0
0
0
0
0
0
0
0
0
0
0
0
0
0
0
0
0
0
0
0
0
0
0
0
0
0
0
0
0
0
0
0
0
0
0
0
0
0
0
0
0
0
0
0
0
0
0
0
0
0
0
0
0
0
0
0
0
0
0
0
0
0
0
0
0
0
0
0
0
0
0
0
0
0
0
0
0
0
0
0
0
0
0
0
0
0
0
0
0
0
0
0
0
0
0
0
0
0
0
0
0
0
0
0
0
0
0
0
0
0
0
0
0
0
0
0
0
0
0
0
0
0
0
0
0
0
0
0
0
0
0
0
0
0
0
0
0
0
0
0
0
0
0
0
0
0
0
0
0
0
0
0
0
0
0
0
0
0
0
0
0
0
0
0
0
0
0
0
0
0
0
0
0
0
0
0
0
0
0
0
0
0
0
0
0
0
0
0
0
0
0
0
0
0
0
0
0
0
0
0
0
0
0
0
0
0
0
0
0
0
0
0
0
0
0
0
0
0
0
0
0
0
0
0
0
0
0
0
0
0
0
0
0
0
0
0
0
0
0
0
0
0
0
0
0
0
0
0
0
0
0
0
0
0
0
0
0
0
0
0
0
0
0
0
0
0
0
0
0
0
0
0
0
0
0
0
0
0
0
0
0
0
0
0
0
0
0
0
0
0
0
0
0
0
0
0
0
0
0
0
0
0
0
0
0
0
0
0
0
0
0
0
0
0
0
0
0
0
0
0
0
0
0
0
0
0
0
0
0
0
0
0
0
0
0
0
0
0
0
0
0
0
0
0
0
0
0
0
0
0
0
0
0
0
0
0
0
0
0
0
0
0
0
0
0
0
0
0
0
0
0
0
0
0
0
0
0
0
0
0
0
0
0
0
0
0
0
0
0
0
0
0
0
0
0
0
0
0
0
0
0
0
0
0
0
0
0
0
0
0
0
0
0
0
0
0
0
0
0
0
0
0
0
0
0
0
0
0
0
0
0
0
0
0
0
0
0
0
0
0
0
0
0
0
0
0
0
0
0
0
0
0
0
0
0
0
0
0
0
0
0
0
0
0
0
0
0
0
0
0
0
0
0
0
0
0
0
0
0
0
0
0
0
0
0
0
0
0
0
0
0
0
0
0
0
0
0
0
0
0
0
0
0
0
0
0
0
0
0
0
0
0
0
0
0
0
0
0
0
0
0
0
0
0
0
0
0
0
0
0
0
0
0
0
0
0
0
0
0
0
0
0
0
0
0
0
0
0
0
0
0
0
0
0
0
0
0
0
0
0
0
0
0
0
0
0
0
0
0
0
0
0
0
0
0
0
0
0
0
0
0
0
0
0
0
0
0
0
0
0
0
0
0
0
0
0
0
0
0
0
0
0
0
0
0
0
0
0
0
0
0
0
0
0
0
0
0
0
0
0
0
0
0
0
0
0
0
0
0
0
0
0
0
0
0
0
0
0
0
0
0
0
0
0
0
0
0
0
0
0
0
0
0
0
0
0
0
0
0
0
0
0
0
0
0
0
0
0
0
0
0
0
0
0
0
0
0
0
0
0
0
0
0
0
0
0
0
0
0
0
0
0
0
0
0
0
0
0
0
0
0
0
0
0
0
0
0
0
0
0
0
0
0
0
0
0
0
0
0
0
0
0
0
0
0
0
0
0
0
0
0
0
0
0
0
0
0
0
0
0
0
0
0
0
0
0
0
0
0
0
0
0
0
0
0
0
0
0
0
0
0
0
0
0
0
0
0
0
0
0
0
0
0
0
0
0
0
0
0
0
0
0
0
0
0
0
0
0
0
0
0
0
0
0
0
0
0
0
0
0
0
0
0
0
0
0
0
0
0
0
0
0
0
0
0
0
0
0
0
0
0
0
0
0
0
0
0
0
0
0
0
0
0
0
0
0
0
0
0
0
0
0
0
0
0
0
0
0
0
0
0
0
0
0
0
0
0
0
0
0
0
0
0
0
0
0
0
0
0
0
0
0
0
0
0
0
0
0
0
0
0
0
0
0
0
0
0
0
0
0
0
0
0
0
0
0
0
0
0
0
0
0
0
0
0
0
0
0
0
0
0
0
0
0
0
0
0
0
0
0
0
0
0
0
0
0
0
0
0
0
0
0
0
0
0
0
0
0
0
0
0
0
0
0
0
0
0
0
0
0
0
0
0
0
0
0
0
0
0
0
0
0
0
0
0
0
0
0
0
0
0
0
0
0
0
0
0
0
0
0
0
0
0
0
0
0
0
0
0
0
0
0
0
0
0
0
0
0
0
0
0
0
0
0
0
0
0
0
0
0
0
0
0
0
0
0
0
0
0
0
0
0
0
0
0
0
0
0
0
0
0
0
0
0
0
0
0
0
0
0
0
0
0
0
0
0
0
0
0
0
0
0
0
0
0
0
0
0
0
0
0
0
0
0
0
0
0
0
0
0
0
0
0
0
0
0
0
0
0
0
0
0
0
0
0
0
0
0
0
0
0
0
0
0
0
0
0
0
0
0
0
0
0
0
0
0
0
0
0
0
0
0
0
0
0
0
0
0
0
0
0
0
0
0
0
0
0
0
0
0
0
0
0
0
0
0
0
0
0
0
0
0
0
0
0
0
0
0
0
0
0
0
0
0
0
0
0
0
0
0
0
0
0
0
0
0
0
0
0
0
0
0
0
0
0
0
0
0
0
0
0
0
0
0
0
0
0
0
0
0
0
0
0
0
0
0
0
0
0
0
0
0
0
0
0
0
0
0
0
0
0
0
0
0
0
0
0
0
0
0
0
0
0
0
0
0
0
0
0
0
0
0
0
0
0
0
0
0
0
0
0
0
0
0
0
0
0
0
0
0
0
0
0
0
0
0
0
0
0
0
0
0
0
0
0
0
0
0
0
0
0
0
0
0
0
0
0
0
0
0
0
0
0
0
0
0
0
0
0
0
0
0
0
0
0
0
0
0
0
0
0
0
0
0
0
0
0
0
0
0
0
0
0
0
0
0
0
0
0
0
0
0
0
0
0
0
0
0
0
0
0
0
0
0
0
0
0
0
0.0783659
0.0782899
0.0663439
0.0662258
0.0883441
0.0906077
0.0404103
0.0452535
0.0138358
0.0126093
0.0108041
0.0137838
0.0134962
0.0129506
0.0136814
0.0141624
0.00324495
0.0137834
0.0135194
0.0130056
0.0138341
0.0125976
0.0108013
0.027662
0.0270927
0.0138286
0.0347186
0.03277
0.0137836
0.0137823
0.0137781
0.0137819
0.0296456
0.0137147
0.0137759
0.0137776
0.0137761
0.0344823
0.0239491
0.00633311
0.0494556
0.0464628
0.0327859
0.0349345
0.0132056
0.00943743
0.0509132
0.0139304
0.0137768
0.013779
0.0137769
0.0464763
0.0348789
0.0137832
0.0137822
0.0137794
0.0137819
0.0328444
0.0138269
0.0270928
0.0347168
0.020062
0.0164288
0.0347349
0.0316514
0.0346625
0.0340171
0.0607812
0.0345505
0.0346506
0.0465179
0.0465238
0.0441037
0.0227036
0.0346531
0.0346509
0.0648341
0.034761
0.0346519
0.0441659
0.0284949
0.0465207
0.0465237
0.0346552
0.0346521
0.0346621
0.0340494
0.0347331
0.0316369
0.00803554
0.0371633
0.0413021
0.0346622
0.0346599
0.0346538
0.0346594
0.00823912
0.0343712
0.0312494
0.0346619
0.0346598
0.0346558
0.0346593
0.0138439
0.0138233
0.0137837
0.0137808
0.0125635
0.0105881
0.00923671
0.00599077
0.0131687
0.0109962
0.0137833
0.0137811
0.0138406
0.0138195
0.0100673
0.0134848
0.0128437
0.0316779
0.013783
0.0137828
0.0137798
0.0137804
0.0104875
0.0137687
0.0137731
0.0137768
0.0137766
0.0314622
0.0265503
0.0306055
0.00315911
0.0115491
0.0169126
0.00962943
0.00712106
0.0321879
0.0271633
0.0196752
0.0116903
0.0280849
0.00272869
0.0114026
0.00262303
0.0137842
0.0137792
0.0137778
0.0137775
0.0137828
0.0137826
0.0137805
0.0137808
0.0134829
0.0128434
0.0316779
0.0443258
0.0442993
0.0443428
0.0442993
0.0325347
0.0367029
0.0138161
0.0161197
0.0138414
0.0134303
0.0075888
0.0137841
0.0137035
0.0118053
0.0136435
0.0025761
0.00484693
0.0147202
0.00268736
0.0046353
0.0137835
0.0137119
0.0119188
0.0138387
0.0134204
0.00760508
0.00488519
0.0315409
0.0138088
0.00948094
0.0336271
0.0218993
0.0137834
0.0137826
0.0137786
0.0137814
0.0155735
0.02329
0.0137414
0.0137756
0.0137773
0.0137763
0.0262049
0.00329361
0.0219298
0.0138347
0.0137769
0.0137786
0.0137771
0.0137831
0.0137824
0.0137798
0.0137815
0.0138064
0.00948139
0.0315853
0.0336248
0.0219004
0.0347397
0.0346865
0.0417317
0.034662
0.0346558
0.0346389
0.0346461
0.0346518
0.0346515
0.0346566
0.0346535
0.0346534
0.034653
0.0346615
0.0346563
0.042715
0.0347356
0.0346819
0.016283
0.0346614
0.0346611
0.0346563
0.0346571
0.0346612
0.0346609
0.0346573
0.0346578
0.0138453
0.0137332
0.00279416
0.0137842
0.0137659
0.00977505
0.0134251
0.00721395
0.0127015
0.00197194
0.0145347
0.00749213
0.0137836
0.0137684
0.0099781
0.0138419
0.0137271
0.0028076
0.0137333
0.0115538
0.0253252
0.0373215
0.0137832
0.0137827
0.0137792
0.0137809
0.0137591
0.0137749
0.013777
0.0137764
0.00843802
0.00299896
0.0428114
0.0306429
0.0388149
0.0361589
0.0336526
0.0398013
0.0426046
0.00901695
0.00311329
0.0128361
0.0156104
0.00342633
0.00280948
0.00281663
0.0130592
0.0365143
0.012963
0.0332221
0.0153074
0.0347434
0.0400376
0.0158187
0.00536811
0.0203164
0.0118058
0.00353678
0.0137978
0.0137774
0.0137782
0.0137772
0.0137829
0.0137825
0.0137801
0.0137811
0.0255639
0.0137306
0.0115546
0.0711041
0.0706853
0.00695495
0.0173385
0.0140057
0.0173979
0.0443698
0.0452045
0.0699849
0.0706799
0.0542938
0.0440884
0.0537511
0.0440657
0.0443697
0.0452044
0.0140088
0.0173989
0.00695491
0.0173392
0.0773133
0.0893504
0.0815823
0.0883959
0.0350763
0.036144
0.0717348
0.0866928
0.0797628
0.0791956
0.081736
0.0841499
0.0894648
0.0867228
0.0350861
0.0361441
0.0569023
0.0423422
0.0580671
0.0371076
0.0451712
0.0578166
0.0386589
0.0521905
0.0371077
0.0451711
0.00327237
0.0181513
0.0188959
0.0348634
0.0245797
0.0328866
0.0346559
0.0328867
0.0440326
0.0356412
0.04538
0.0427085
0.0324057
0.0300991
0.00798238
0.0267532
0.0329765
0.034324
0.0439046
0.0436129
0.00645643
0.00827284
0.0401789
0.0468727
0.045466
0.0468668
0.0446649
0.0450175
0.0468382
0.0328899
0.0353244
0.0438642
0.00668163
0.029168
0.0485984
0.045842
0.0468727
0.0468701
0.0453559
0.0456366
0.0468548
0.0427282
0.0324054
0.0302448
0.01892
0.00672547
0.0348502
0.0245811
0.0346531
0.0440326
0.043891
0.0356423
0.0453801
0.0324782
0.0134463
0.0299062
0.0271518
0.0370708
0.00701911
0.0321806
0.0131513
0.0298671
0.0259293
0.0361797
0.0064236
0.0181955
0.0385545
0.0208409
0.0721588
0.065361
0.0835907
0.0341619
0.0373924
0.03288
0.0347429
0.0328735
0.0440633
0.0440693
0.0337076
0.0404223
0.0349287
0.0444942
0.0413566
0.0331267
0.0346628
0.044044
0.0440441
0.0435987
0.0344843
0.018298
0.0409577
0.0239787
0.0191703
0.0548041
0.0588182
0.0326404
0.0250245
0.0703253
0.0402223
0.0736346
0.00999462
0.0330164
0.0345945
0.043984
0.0346501
0.033123
0.0440395
0.0440394
0.0468727
0.0465333
0.0468727
0.0465288
0.0468727
0.0468727
0.0371785
0.00952177
0.0323043
0.00282546
0.00716467
0.033125
0.0346526
0.0331248
0.0440404
0.0440402
0.0346511
0.0331242
0.0440396
0.0735739
0.0463263
0.0855962
0.0573129
0.0782536
0.020469
0.0497111
0.0329814
0.0439715
0.0346904
0.0440117
0.0346519
0.0331238
0.04404
0.0382935
0.010511
0.0353936
0.00689837
0.00932751
0.0468727
0.0465333
0.0468727
0.0465288
0.0468727
0.0468727
0.033125
0.0346546
0.0331249
0.0440413
0.0346523
0.0440401
0.0331255
0.0346622
0.0331257
0.044044
0.0436083
0.0344963
0.0328879
0.0341733
0.0373935
0.0347398
0.0328718
0.0440633
0.0440689
0.0336942
0.0404086
0.0349302
0.0444944
0.0413569
0.0346619
0.044044
0.0346604
0.0440429
0.0331252
0.0346545
0.0331255
0.0440407
0.0331266
0.0346587
0.0440428
0.0346617
0.0331254
0.044044
0.0346603
0.0331262
0.033126
0.0440429
0.0346564
0.0440415
0.0440417
0.0331262
0.0346588
0.0440427
0.0440425
0.0050588
0.00497885
0.00238484
0.0151116
0.00251074
0.0278488
0.0322395
0.0380869
0.0457988
0.0467257
0.0457998
0.0467257
0.0458203
0.0467261
0.0467279
0.0458044
0.0457965
0.0467263
0.0467262
0.0457958
0.0457942
0.0467261
0.0467259
0.045795
0.0192932
0.00249032
0.0180926
0.0337045
0.0133242
0.0122013
0.00591328
0.00252918
0.0160208
0.0186036
0.034108
0.0235499
0.00638785
0.0203476
0.0101001
0.00716186
0.00766838
0.0367599
0.0240115
0.0024025
0.0457961
0.0467263
0.0457955
0.0467261
0.0457939
0.0467261
0.0467259
0.0457947
0.0278506
0.0322391
0.0380871
0.0457983
0.0467257
0.0467256
0.0457994
0.0458201
0.0467261
0.0467278
0.0458041
0.0443629
0.0443309
0.0443633
0.0443312
0.00840643
0.0137026
0.00350344
0.0232491
0.0446785
0.0338719
0.0149013
0.0107614
0.0042082
0.011961
0.0111798
0.0116054
0.0108929
0.0232013
0.0125768
0.00875479
0.00811106
0.00358356
0.0146275
0.022801
0.00688897
0.0344094
0.0418191
0.0328494
0.043369
0.0117633
0.01097
0.0119249
0.0105496
0.0242529
0.03785
0.029034
0.011937
0.0111764
0.0232925
0.0126328
0.00882455
0.00810428
0.00357152
0.0145919
0.0227811
0.00690648
0.00904671
0.034406
0.0326874
0.0418186
0.032847
0.0433683
0.0123558
0.0123527
0.0121931
0.0122416
0.0119211
0.0119243
0.0119803
0.0119668
0.0119205
0.0119238
0.0119819
0.0119715
0.0347471
0.0328613
0.0440584
0.0344622
0.0326166
0.0439994
0.0346629
0.0331281
0.0331274
0.0440435
0.0440441
0.0465271
0.0468412
0.0465271
0.0468412
0.0346232
0.0331277
0.0440398
0.0465267
0.0468412
0.0468411
0.0465271
0.0121682
0.0121384
0.0121174
0.0121123
0.0123422
0.0124149
0.0122874
0.012354
0.0346232
0.0440341
0.0440266
0.034649
0.0331179
0.0440375
0.0346521
0.0331245
0.04404
0.0465272
0.0468413
0.0468413
0.0465272
0.0346513
0.0331244
0.0331243
0.0440398
0.0465272
0.0468413
0.0468413
0.0465272
0.0346652
0.0331118
0.0440362
0.0440289
0.0346523
0.0331222
0.0440388
0.034654
0.0331246
0.0331247
0.0440406
0.0465272
0.0468413
0.0465272
0.0468413
0.0346526
0.0331245
0.0331244
0.0440405
0.0465273
0.0468413
0.0468413
0.0465272
0.0122796
0.0122587
0.012031
0.0120904
0.0346622
0.0331267
0.0331261
0.0440435
0.0465271
0.0468412
0.0465271
0.0468412
0.0346268
0.0331265
0.0331173
0.04404
0.0465267
0.0468412
0.0468411
0.0465271
0.0347429
0.0328114
0.0328587
0.0440576
0.0440684
0.0344542
0.0319444
0.0439983
0.0346617
0.0331265
0.0331264
0.0440437
0.0440438
0.0465271
0.0468412
0.0468412
0.0465271
0.0346607
0.0331265
0.0440436
0.0465272
0.0468412
0.0465272
0.0468412
0.0346554
0.0440416
0.0440413
0.0465272
0.0468413
0.0465272
0.0468413
0.034658
0.0331263
0.044042
0.0465272
0.0468413
0.0465272
0.0468413
0.0346614
0.0331255
0.0331254
0.0440438
0.0440439
0.046527
0.0468412
0.0465271
0.0468412
0.0346606
0.0440437
0.0465271
0.0468412
0.0465271
0.0468412
0.0346569
0.0440421
0.0440419
0.0465272
0.0468413
0.0468413
0.0465272
0.0346583
0.0331261
0.0440422
0.0465272
0.0468413
0.0465272
0.0468413
0.0216126
0.0151769
0.0271431
0.0339009
0.0271435
0.0337218
0.00932772
0.046841
0.0465357
0.0468431
0.0465229
0.0468418
0.0468418
0.0436235
0.0347024
0.0338955
0.0437913
0.0349078
0.0344836
0.0468412
0.0465361
0.0468431
0.0465229
0.0468418
0.0468418
0.00933035
0.0152621
0.0443971
0.0350968
0.0352029
0.0442931
0.034707
0.0346953
0.0351576
0.0444006
0.0352176
0.0442933
0.0347078
0.0346964
0.0169787
0.0163357
0.00970676
0.0165112
0.0163356
0.00970691
0.0451119
0.0163172
0.0452113
0.0169836
0.0170149
0.0451118
0.0163171
0.0452112
0.0169834
0.0170147
0.0351821
0.0352428
0.0351883
0.0352462
0.0203028
0.0347639
0.0213418
0.0429332
0.0441646
0.0167481
0.0150949
0.0185475
0.0429331
0.0441644
0.0167477
0.015094
0.0328189
0.023807
0.0430288
0.0454988
0.0332077
0.0300414
0.0193183
0.0394547
0.013869
0.0156299
0.020294
0.0068751
0.0301596
0.0197011
0.0465373
0.0468429
0.0468433
0.0465253
0.0468424
0.0468421
0.0136619
0.0132292
0.0127691
0.0128876
0.0137535
0.0132172
0.0138171
0.0136927
0.0465373
0.0468429
0.0468433
0.0465253
0.0468424
0.0468421
0.0127408
0.0122137
0.0109187
0.0138704
0.0156306
0.0272209
0.044394
0.0349776
0.0351295
0.0138833
0.0139339
0.0137406
0.013865
0.0443073
0.0348387
0.0347476
0.0135251
0.0135187
0.0136296
0.0135589
0.0139297
0.0139456
0.0443947
0.0349799
0.0351335
0.0137424
0.0138683
0.0443077
0.0348406
0.0347492
0.0135257
0.0135197
0.0136312
0.0135602
0.0165165
0.0162786
0.00706472
0.0165158
0.0162784
0.0070649
0.0445739
0.0349345
0.0358276
0.0445738
0.0349349
0.0358277
0.0168999
0.0136917
0.0144062
0.0136921
0.0144063
0.012669
0.0126434
0.0192119
0.0167009
0.0166209
0.0092149
0.0160426
0.015877
0.0164151
0.0145933
0.015876
0.0456401
0.0463846
0.0250374
0.00802705
0.0206479
0.0188245
0.00669637
0.00773329
0.0380465
0.0316171
0.0173438
0.0169932
0.0169938
0.0149365
0.0149371
0.0176501
0.0131823
0.0294982
0.00260435
0.0115745
0.00884179
0.00603066
0.0117595
0.0115918
0.0112565
0.0116624
0.00560446
0.00847972
0.00473871
0.00197712
0.0116581
0.010413
0.00458998
0.00878729
0.0117587
0.0115915
0.0112563
0.0115738
0.00887362
0.00295527
0.00927679
0.00608625
0.0115794
0.0157633
0.0137686
0.0214721
0.0397125
0.0337208
0.0435664
0.0354399
0.0439398
0.0442422
0.0351119
0.0353771
0.035323
0.0397423
0.0339005
0.04437
0.0442603
0.0117593
0.011759
0.0117576
0.0117589
0.0116832
0.0117561
0.0117574
0.0117564
0.0137066
0.0216
0.0137107
0.0214713
0.00781884
0.00171904
0.0110423
0.00417825
0.00441021
0.00368542
0.023529
0.0078543
0.0194245
0.0159302
0.0281618
0.0274113
0.0251522
0.0341759
0.0230592
0.0116862
0.0117562
0.0117574
0.0117564
0.0117585
0.0117587
0.0117576
0.0117587
0.0443714
0.0442609
0.043567
0.0354363
0.0439401
0.0442426
0.0351158
0.0353728
0.0353279
0.0397441
0.0115788
0.00474989
0.0182673
0.0157629
0.0216126
0.0328865
0.0137686
0.0151778
0.0214716
0.039714
0.00135962
0.00559484
0.00171634
0.013255
0.00650431
0.00256098
0.042052
0.045493
0.0227275
0.0258365
0.0131033
0.015261
0.0443812
0.0328885
0.0446708
0.0425968
0.0456515
0.00750658
0.0331237
0.033124
0.0331241
0.0443831
0.0446708
0.0328797
0.0259092
0.0131033
0.00162584
0.0109886
0.00944256
0.0331265
0.0449391
0.0331266
0.0466423
0.0465344
0.046647
0.00844007
0.00806778
0.0331254
0.0449391
0.0466423
0.0331253
0.0465344
0.046647
0.0115407
0.0114589
0.0117607
0.0117604
0.0116242
0.0111799
0.00527239
0.0117735
0.0116661
0.00525535
0.0117597
0.0117595
0.0115386
0.0114577
0.00275952
0.00294505
0.00132636
0.00145308
0.0150609
0.01534
0.0114407
0.0111298
0.00101049
0.0374887
0.0449028
0.0359164
0.035928
0.0364738
0.0359351
0.0458623
0.0458721
0.0456401
0.0458681
0.0426651
0.0417891
0.0425612
0.0458544
0.0457957
0.0441334
0.0457397
0.0359049
0.0359881
0.042311
0.0363979
0.0456593
0.0460557
0.0467814
0.046256
0.0117591
0.0117591
0.0117582
0.0117584
0.0155425
0.0117464
0.0117521
0.0117569
0.0117568
0.0130196
0.0322386
0.0456595
0.037032
0.0306063
0.0301642
0.0421639
0.0206287
0.00304768
0.0271668
0.021536
0.0302884
0.0325628
0.0461192
0.0411179
0.0122383
0.03207
0.0367894
0.0437413
0.033236
0.0251919
0.0131232
0.0395718
0.0314966
0.0179497
0.0277203
0.00977079
0.0128026
0.0461235
0.0434557
0.011749
0.0117534
0.0117569
0.0117568
0.015125
0.0117584
0.0117585
0.0117582
0.0117583
0.0459774
0.046781
0.0462287
0.0458605
0.0458701
0.0456394
0.045866
0.0418459
0.0417168
0.0425669
0.0417347
0.045853
0.0458046
0.0457653
0.0457875
0.0365243
0.0423574
0.0457123
0.0441174
0.0114391
0.0111293
0.00950175
0.00102447
0.037489
0.0449027
0.0360677
0.0359205
0.0364743
0.0359323
0.00569834
0.0335412
0.0345094
0.0326149
0.014111
0.0138512
0.016564
0.0140653
0.0350293
0.0345821
0.00354895
0.00912148
0.0386158
0.0465783
0.0124385
0.0435463
0.0350347
0.0345851
0.033541
0.0345116
0.0326153
0.0141077
0.0138538
0.0165608
0.0140614
0.00323894
0.00612046
0.00841969
0.0276828
0.0282388
0.0115696
0.0104486
0.002148
0.0117597
0.0117179
0.0105521
0.0117132
0.00841498
0.0113168
0.002064
0.0117151
0.0117079
0.0111687
0.0111052
0.00191527
0.00538264
0.0117588
0.0117173
0.0105521
0.0115679
0.0104597
0.00218098
0.027957
0.0217591
0.0241617
0.0200678
0.0292659
0.00751854
0.0353093
0.0115793
0.00927363
0.0468008
0.0326892
0.0460913
0.0143739
0.0296432
0.0432393
0.0426549
0.0416733
0.0416712
0.0419154
0.0422104
0.0466748
0.039261
0.046718
0.0416145
0.041614
0.0416197
0.0373694
0.0467055
0.046713
0.0466463
0.0441614
0.0463516
0.0441831
0.0466486
0.0463535
0.0463811
0.0352251
0.0466921
0.0416148
0.041614
0.0416332
0.0416386
0.0352747
0.0467049
0.0466996
0.041666
0.0416687
0.0416485
0.0416438
0.0468637
0.0443263
0.046791
0.0443104
0.0466779
0.0467605
0.0117592
0.0117591
0.0117578
0.0117588
0.00504352
0.0255898
0.0206295
0.0117129
0.0117556
0.0117573
0.0117566
0.0395652
0.0132616
0.0200232
0.031447
0.0120482
0.0133417
0.00262965
0.00205615
0.00425037
0.0114095
0.0115663
0.0027462
0.0385826
0.0550997
0.0479824
0.0222277
0.00804368
0.00345692
0.0179752
0.0265872
0.00743817
0.0464827
0.0311463
0.0345362
0.0178379
0.0354178
0.011718
0.0117559
0.0117573
0.0117566
0.0274548
0.0217794
0.0117585
0.0117586
0.0117578
0.0117586
0.0468636
0.0443277
0.0467839
0.0443118
0.0464661
0.0467392
0.0466751
0.0392627
0.046718
0.041616
0.0416151
0.0416212
0.0373708
0.0467055
0.0467131
0.0466466
0.0441614
0.0463509
0.0441831
0.0463851
0.0463456
0.0352322
0.0466966
0.0466991
0.041615
0.0416147
0.0352796
0.0467049
0.0467007
0.041632
0.0416372
0.0416645
0.0416672
0.0416467
0.0416421
0.0115779
0.00927367
0.029162
0.00756582
0.0352016
0.0468008
0.0460912
0.0143742
0.0296434
0.0432395
0.0426548
0.0416717
0.0416696
0.0419151
0.0422103
0.00413927
0.00445373
0.0103818
0.0129938
0.00608362
0.017388
0.0281495
0.0280328
0.0280571
0.0279916
0.024276
0.0242904
0.024371
0.0243069
0.0242755
0.0242905
0.0243129
0.0243096
0.0328135
0.0467993
0.0466252
0.0416586
0.0464324
0.0468432
0.0468431
0.0468258
0.0468431
0.0280954
0.028043
0.0280461
0.0280351
0.0280834
0.0275583
0.0258635
0.0270415
0.0331094
0.0464239
0.0468384
0.0468432
0.0468425
0.0468432
0.0468432
0.0468432
0.0468432
0.0465887
0.0468409
0.0468432
0.0331194
0.0468429
0.0468432
0.0468432
0.0468432
0.0468432
0.0273239
0.0261492
0.0244215
0.0255851
0.0468432
0.0468431
0.0468258
0.0468431
0.0467993
0.0466252
0.0416104
0.0326166
0.0464317
0.0468432
0.0468432
0.0468432
0.0468432
0.0331259
0.0468432
0.0468432
0.0331261
0.0468432
0.0468432
0.0468432
0.0468432
0.0331256
0.0468432
0.0468432
0.0331258
0.0468432
0.0468432
0.033126
0.0468432
0.0468432
0.0115624
0.0111865
0.0117601
0.0117537
0.00931092
0.0117654
0.0102245
0.0117925
0.0114989
0.0117592
0.0117529
0.00931101
0.0115601
0.0111881
0.00142391
0.00365789
0.00552637
0.00855601
0.00703189
0.00143315
0.00680214
0.00349227
0.00149196
0.00698767
0.00355108
0.00330987
0.00343659
0.0115525
0.0104643
0.00187235
0.000861858
0.0416756
0.041681
0.0417617
0.0417003
0.0416152
0.0416162
0.0457875
0.0421377
0.0458676
0.0467257
0.0421806
0.0467258
0.0457874
0.0457877
0.0467262
0.0422479
0.0458705
0.0422189
0.045788
0.0467259
0.0457888
0.041918
0.0457864
0.0467274
0.0421397
0.0467272
0.045789
0.0416185
0.0416173
0.0457886
0.0467266
0.0458477
0.0422564
0.0422299
0.046727
0.0457883
0.0457913
0.0467279
0.0467277
0.0457929
0.0457907
0.0467276
0.0457904
0.0467276
0.0457894
0.0467274
0.0457892
0.0467274
0.0457897
0.0467275
0.0467275
0.04579
0.0416166
0.0416194
0.0457874
0.042079
0.0467256
0.0458416
0.0419961
0.0457873
0.0467256
0.0457877
0.0467256
0.0417038
0.0458232
0.041875
0.0457882
0.0467256
0.0457907
0.0369901
0.0451445
0.0467257
0.0397962
0.0467257
0.0457917
0.0416279
0.0416233
0.0457897
0.0467256
0.0455832
0.0414526
0.04098
0.0467257
0.0457889
0.0416631
0.04166
0.0416527
0.0416566
0.0458153
0.0420215
0.0467286
0.0458176
0.0422799
0.0457982
0.0467311
0.0458595
0.0467526
0.0429677
0.0459261
0.0425318
0.0459473
0.046738
0.0296923
0.0432538
0.0462415
0.0467751
0.0464907
0.0438021
0.0448691
0.0468008
0.0460813
0.0117591
0.0117591
0.011758
0.0117586
0.00253592
0.0117344
0.0117546
0.0117571
0.0117567
0.00851445
0.0433731
0.0328756
0.0416224
0.0413222
0.0414233
0.044481
0.00401621
0.0297761
0.0132662
0.0111924
0.0270834
0.00951783
0.0140053
0.0178896
0.00334911
0.0164272
0.00837175
0.0270807
0.0107001
0.00322815
0.0328156
0.0426206
0.04223
0.0410484
0.0421646
0.0436117
0.0448862
0.0132643
0.0365488
0.0189482
0.0120182
0.0143315
0.0161411
0.0428709
0.0351104
0.0377457
0.0441477
0.0148379
0.0289332
0.00275952
0.010382
0.0117385
0.0117552
0.0117571
0.0117567
0.0117584
0.0117586
0.011758
0.0117584
0.0458154
0.0467286
0.0467311
0.0457982
0.0458596
0.0467526
0.0428582
0.0457342
0.0422582
0.0459474
0.046738
0.0373482
0.0432539
0.0296924
0.0462415
0.0467751
0.0464821
0.043758
0.0448533
0.0468008
0.0460814
0.0416171
0.0416182
0.0457878
0.0421192
0.0458654
0.0467257
0.0421598
0.0467258
0.0457875
0.045788
0.0467262
0.0422212
0.0458687
0.0421936
0.0457883
0.0467259
0.0457891
0.0419011
0.0457852
0.0467274
0.0421172
0.0467273
0.0457892
0.0416203
0.0416193
0.0457889
0.0467266
0.0458461
0.0422333
0.0422096
0.046727
0.0457886
0.0457914
0.0467279
0.0457929
0.0467277
0.0457907
0.0467276
0.0457903
0.0467276
0.0457895
0.0467274
0.0457893
0.0467275
0.0457897
0.0467275
0.0467275
0.04579
0.0457874
0.0420665
0.0467256
0.0458404
0.041993
0.0457874
0.0467256
0.0416165
0.041619
0.0457877
0.0467256
0.045824
0.0417374
0.0418803
0.0467256
0.0457882
0.0457905
0.0415368
0.045778
0.0467257
0.0415783
0.0467257
0.0457915
0.041627
0.0416227
0.0457896
0.0467256
0.0457799
0.0416075
0.0415622
0.0467257
0.0457888
0.0416616
0.0416585
0.041651
0.0416549
0.0115504
0.0104645
0.00188985
0.00086538
0.0416741
0.0416797
0.0417611
0.0416992
0.0673718
0.0637409
0.0270434
0.0123932
0.0269874
0.0123541
0.00157374
0.00512187
0.00816742
0.00669956
0.00987516
0.0170541
0.00203334
0.00735377
0.0121809
0.0029525
0.0123289
0.0751716
0.0832659
0.0123293
0.00260429
0.00735426
0.0121817
0.00295265
0.0209184
0.0407494
0.0375935
0.0418701
0.00275334
0.00817099
0.00996717
0.00335874
0.00871489
0.0066595
0.0160009
0.0291397
0.0142594
0.0167813
0.0447865
0.0461795
0.0438914
0.0444178
0.0444174
0.0141872
0.0165186
0.0465117
0.046412
0.0445798
0.037705
0.0445627
0.0389909
0.0332067
0.0445716
0.0445713
0.0463128
0.046388
0.0427373
0.0332057
0.0444388
0.0303329
0.0435593
0.0465067
0.0462105
0.045134
0.0356438
0.0444669
0.0168896
0.0387674
0.0170042
0.0389227
0.0450867
0.0445319
0.0466225
0.0464626
0.0449811
0.0440812
0.0450713
0.0466065
0.0464868
0.0466002
0.0442232
0.0465129
0.0449392
0.0449187
0.0466034
0.0465086
0.0449907
0.0383494
0.0443868
0.0351155
0.0383917
0.0449798
0.0443864
0.045051
0.035349
0.0444474
0.016831
0.0386894
0.0386362
0.0450643
0.0444411
0.0392209
0.0460154
0.0447358
0.0396313
0.0445681
0.0446039
0.0466203
0.0465338
0.0443568
0.0450661
0.0450526
0.0466223
0.0465318
0.0407659
0.0313977
0.0438403
0.0442209
0.046609
0.0442776
0.0465163
0.0449586
0.0449765
0.0466064
0.0465193
0.0097111
0.0343338
0.0368836
0.00385234
0.00930229
0.0440552
0.0329838
0.0443045
0.0216759
0.0222779
0.0112154
0.00962988
0.00768116
0.0279258
0.0271549
0.0261565
0.013716
0.0101867
0.0333058
0.0337388
0.0387704
0.0220682
0.0301536
0.0400684
0.00800702
0.00691053
0.0328561
0.0435302
0.0430234
0.0436588
0.0305853
0.00849656
0.0352353
0.0352827
0.00915022
0.00841567
0.0253759
0.0293868
0.025456
0.00917121
0.0152429
0.00862468
0.0254001
0.0238023
0.00930288
0.00329556
0.0264336
0.00692543
0.0468057
0.0466858
0.0460589
0.0466204
0.046534
0.0450671
0.0443578
0.0450535
0.0466224
0.046532
0.0407964
0.0313976
0.0438402
0.0442207
0.0466091
0.0442785
0.0465141
0.0449587
0.0449766
0.0466064
0.0465181
0.0463129
0.0463882
0.0427383
0.0444389
0.0303333
0.0435596
0.0465068
0.0462108
0.0451361
0.0356416
0.0444667
0.0168947
0.0387742
0.0389305
0.0450887
0.0445321
0.0466226
0.0464627
0.0440813
0.0449813
0.0450714
0.0466066
0.0464868
0.0466002
0.0442236
0.0465104
0.0449393
0.0449187
0.0466034
0.0465072
0.0449906
0.0383457
0.0351198
0.0443912
0.0165947
0.0383892
0.0449793
0.0443887
0.0450517
0.0353458
0.0444469
0.0168343
0.0386939
0.0386388
0.0450657
0.0444408
0.0466901
0.0392249
0.0463937
0.0396348
0.0447717
0.0460402
0.0160243
0.0292085
0.0447867
0.0142605
0.0167807
0.0461795
0.0328854
0.044418
0.044418
0.0141875
0.0165186
0.0465117
0.0464121
0.0377058
0.0328203
0.0445801
0.0445621
0.0389917
0.0446287
0.0445695
0.00740844
0.00508433
0.00737523
0.00293336
0.00378254
0.00886143
0.0107167
0.00567787
0.0122715
0.00883981
0.0204489
0.0201442
0.0137751
0.00705943
0.017414
0.0544871
0.0584727
0.0358583
0.00558516
0.0141562
0.0360943
0.0444085
0.0444124
0.0444151
0.0300525
0.042869
0.0417328
0.0374163
0.0464354
0.00356136
0.00280121
0.0452839
0.046869
0.0444048
0.0468707
0.033127
0.0444885
0.0444884
0.0330683
0.0444033
0.0439246
0.0444686
0.0444199
0.0468709
0.0468707
0.0543594
0.0582716
0.0194273
0.0025192
0.0106517
0.0595556
0.0589794
0.0351972
0.0330602
0.0444049
0.0440123
0.0444511
0.0444886
0.0444889
0.0444889
0.0444889
0.0440397
0.044489
0.0444889
0.0263438
0.0736787
0.0737533
0.0610442
0.0330528
0.0441011
0.0443416
0.0331233
0.0440399
0.0444887
0.0444889
0.0111225
0.0440411
0.0444889
0.0444889
0.0331243
0.0440402
0.044489
0.044489
0.046869
0.044406
0.0468707
0.044044
0.044488
0.044488
0.0330675
0.0444031
0.0439284
0.0444683
0.0444204
0.0468709
0.0468707
0.0360492
0.0444083
0.0444125
0.0444156
0.0300817
0.0428614
0.041756
0.0374672
0.0464353
0.00356155
0.00280166
0.0452839
0.00685593
0.0166592
0.00450198
0.0143513
0.0242192
0.00619204
0.0331265
0.0440439
0.0444885
0.0444885
0.0468712
0.0462224
0.0468725
0.0331266
0.0440431
0.0444889
0.0444889
0.0464637
0.0468727
0.0468727
0.044041
0.0444889
0.0444889
0.0331265
0.0440425
0.044489
0.044489
0.0468727
0.0466339
0.0468727
0.0468727
0.0466482
0.0468727
0.00875741
0.00723597
0.0440439
0.044488
0.044488
0.0440431
0.0444886
0.0444888
0.0468712
0.0462224
0.0468725
0.0468727
0.0464637
0.0468727
0.0331255
0.044489
0.0444889
0.0468727
0.0466339
0.0468727
0.0331262
0.0444889
0.0444889
0.0466482
0.0468727
0.0468727
0.0118505
0.00227586
0.0117706
0.00225882
0.00660011
0.00541354
0.0025731
0.00671936
0.00610897
0.0462371
0.0156981
0.0397956
0.0467608
0.0231388
0.0467814
0.0460799
0.0306311
0.0312826
0.0438076
0.0441738
0.0463756
0.0468095
0.0427391
0.0410782
0.034376
0.046799
0.0464614
0.0457984
0.0144811
0.0359225
0.0467258
0.0144855
0.0467257
0.0457981
0.0144897
0.0359255
0.0144878
0.0458628
0.0149087
0.0467436
0.0360884
0.0146148
0.0459484
0.0467329
0.0359667
0.0144957
0.014521
0.0457971
0.0144727
0.0467258
0.0358893
0.0144608
0.0457976
0.046726
0.03589
0.0145255
0.0144592
0.0457934
0.0314655
0.0467258
0.0398016
0.022144
0.0457926
0.0467258
0.0375652
0.0148217
0.0157226
0.046383
0.0462416
0.0468345
0.0466761
0.0464712
0.045732
0.0468221
0.00669317
0.00613891
0.00298392
0.0446913
0.0463231
0.044075
0.0430034
0.0456774
0.0397449
0.0458127
0.00715576
0.00856435
0.0273159
0.0230898
0.0313848
0.0378793
0.0189448
0.0210513
0.0201961
0.0348869
0.00765042
0.0310662
0.0238928
0.0103353
0.0355493
0.0367447
0.034579
0.0273681
0.0233388
0.0249445
0.00299514
0.00581177
0.00888486
0.0255139
0.0313369
0.0231496
0.00844924
0.00267604
0.0216089
0.00785295
0.0239067
0.00994006
0.00575733
0.0394823
0.0463771
0.0451787
0.0341888
0.0425381
0.0229585
0.0459766
0.0188549
0.00939056
0.0368781
0.0314153
0.0391856
0.0203247
0.00913136
0.0294821
0.0362665
0.003363
0.0279131
0.0255398
0.00977881
0.0376422
0.0404729
0.0277706
0.0264965
0.0105267
0.0290163
0.00666173
0.00271534
0.0187941
0.00788305
0.0350136
0.0066313
0.00545285
0.046383
0.0462416
0.0468345
0.0466738
0.0464712
0.0457284
0.0468221
0.0457967
0.0149186
0.0377222
0.0467258
0.0158478
0.0467259
0.0457972
0.0312365
0.039924
0.0221474
0.0457931
0.0413144
0.0467257
0.0455441
0.0407251
0.0457923
0.0467258
0.0450996
0.0365953
0.0393932
0.0129493
0.00213603
0.00481286
0.0462371
0.0156983
0.0397957
0.0467608
0.0231386
0.0467814
0.0460799
0.0306318
0.031283
0.0438081
0.0441741
0.0463757
0.0468095
0.042739
0.041078
0.0343757
0.046799