# Force and moment coefficients
# dragDir     : (0.000000e+00 1.000000e+00 0.000000e+00)
# sideDir     : (-1.000000e+00 0.000000e+00 0.000000e+00)
# liftDir     : (0.000000e+00 0.000000e+00 1.000000e+00)
# rollAxis    : (0.000000e+00 1.000000e+00 0.000000e+00)
# pitchAxis   : (-1.000000e+00 0.000000e+00 0.000000e+00)
# yawAxis     : (0.000000e+00 0.000000e+00 1.000000e+00)
# magUInf     : 4.200000e+01
# lRef        : 1.000000e+00
# Aref        : 3.140000e+00
# CofR        : (0.000000e+00 0.000000e+00 0.000000e+00)
#
# Time        	Cd            	Cd(f)         	Cd(r)         	Cl            	Cl(f)         	Cl(r)         	CmPitch       	CmRoll        	CmYaw         	Cs            	Cs(f)         	Cs(r)         
200           	-2.610428e-01	-1.322934e-01	-1.287494e-01	2.661791e-01	2.457933e-01	2.038576e-02	1.127038e-01	-1.772007e-03	-7.433366e-04	-6.552856e-04	-1.070979e-03	4.156938e-04
400           	-2.890142e-01	-1.466600e-01	-1.423542e-01	3.981512e-01	3.418834e-01	5.626772e-02	1.428079e-01	-2.152930e-03	-7.946433e-04	-9.140262e-04	-1.251656e-03	3.376302e-04
600           	-2.650996e-01	-1.345934e-01	-1.305062e-01	3.360112e-01	2.902212e-01	4.578998e-02	1.222156e-01	-2.043620e-03	-7.259898e-04	-9.689605e-04	-1.210470e-03	2.415096e-04
800           	-2.535667e-01	-1.286989e-01	-1.248678e-01	3.232042e-01	2.738076e-01	4.939657e-02	1.122055e-01	-1.915565e-03	-6.981715e-04	-8.763086e-04	-1.136326e-03	2.600172e-04
