/*--------------------------------*- C++ -*----------------------------------*\
| =========                 |                                                 |
| \\      /  F ield         | OpenFOAM: The Open Source CFD Toolbox           |
|  \\    /   O peration     | Version:  v2012                                 |
|   \\  /    A nd           | Website:  www.openfoam.com                      |
|    \\/     M anipulation  |                                                 |
\*---------------------------------------------------------------------------*/
FoamFile
{
    version     2.0;
    format      ascii;
    class       volScalarField;
    location    "0";
    object      ReThetat;
}
// * * * * * * * * * * * * * * * * * * * * * * * * * * * * * * * * * * * * * //

retheta			584.3016;

dimensions      [0 0 0 0 0 0 0];

internalField   uniform $retheta;

boundaryField
{
    freestream
    {
        type            inletOutlet;
        inletValue      uniform $retheta;
        value           uniform $retheta;
    }
    airfoilZeroDegSurf
    {
        type            zeroGradient;
    }
	
	flapFiftyDegSurf
    {
        type            zeroGradient;
    }

    #includeEtc "caseDicts/setConstraintTypes"
}


// ************************************************************************* //
