/*--------------------------------*- C++ -*----------------------------------*\
| =========                 |                                                 |
| \\      /  F ield         | OpenFOAM: The Open Source CFD Toolbox           |
|  \\    /   O peration     | Version:  2206                                  |
|   \\  /    A nd           | Website:  www.openfoam.com                      |
|    \\/     M anipulation  |                                                 |
\*---------------------------------------------------------------------------*/
FoamFile
{
    version     2.0;
    format      ascii;
    arch        "LSB;label=32;scalar=64";
    class       volScalarField;
    location    "600";
    object      nut;
}
// * * * * * * * * * * * * * * * * * * * * * * * * * * * * * * * * * * * * * //

dimensions      [0 2 -1 0 0 0 0];

internalField   nonuniform List<scalar> 
198968
(
0.0402342
0.0412024
0.0411956
0.0411956
0.0411956
0.0411952
0.0412018
0.0402416
0.0408274
0.0406578
0.0406828
0.0406706
0.0406459
0.0406653
0.0406565
0.0408341
0.0411573
0.0412387
0.0412788
0.0412663
0.0412429
0.0412645
0.0412589
0.0411389
0.0417689
0.0417538
0.0417917
0.0417795
0.0417539
0.0417831
0.0417718
0.0416511
0.0423568
0.042225
0.0422766
0.0422698
0.0422435
0.0422778
0.0422508
0.0421158
0.0426427
0.042646
0.0426887
0.0426974
0.0426877
0.042694
0.0426695
0.0425424
0.0429205
0.0430406
0.0430945
0.0431114
0.043116
0.0431003
0.0430752
0.0429273
0.0431781
0.0434537
0.0434615
0.0434991
0.0435144
0.0434753
0.0434553
0.0433178
0.0434578
0.0438808
0.0438116
0.0438585
0.0438662
0.0438359
0.0438135
0.0437354
0.0440593
0.0443285
0.044216
0.0442241
0.0442258
0.0442232
0.0442215
0.044172
0.0448127
0.0447402
0.044635
0.0446357
0.0446362
0.044636
0.0446362
0.0445808
0.0451895
0.045123
0.0450392
0.0450391
0.0450392
0.0450397
0.0450387
0.0449823
0.0454973
0.0454085
0.0454184
0.0454184
0.0454184
0.0454184
0.0454187
0.0453633
0.0458302
0.0457321
0.0457361
0.0457363
0.0457363
0.0457362
0.0457364
0.045675
0.0461963
0.0460885
0.0460915
0.046092
0.0460922
0.0460919
0.0460921
0.0460238
0.0466026
0.0464826
0.046485
0.0464851
0.0464851
0.0464851
0.046485
0.0464093
0.0470347
0.0469231
0.0469246
0.0469246
0.0469247
0.0469246
0.0469246
0.0468365
0.0475435
0.0474223
0.0474231
0.0474231
0.0474231
0.0474231
0.0474231
0.0473229
0.0481174
0.047998
0.0479978
0.0479977
0.0479976
0.0479977
0.047998
0.047894
0.0488783
0.0486717
0.0486712
0.0486707
0.0486706
0.0486709
0.0486715
0.0488783
0.0385233
0.0428436
0.042839
0.0428384
0.0428382
0.0428388
0.0428396
0.042724
0.0392251
0.0430273
0.0430239
0.0430237
0.0430237
0.043024
0.0430236
0.0429163
0.0397967
0.0431883
0.0431842
0.043184
0.0431838
0.0431843
0.0431842
0.0430733
0.0403538
0.0433555
0.0433508
0.0433503
0.0433501
0.0433505
0.0433511
0.0432382
0.0409344
0.0435308
0.0435261
0.0435259
0.0435258
0.043526
0.0435264
0.0434159
0.0415019
0.0437158
0.0437129
0.0437124
0.0437119
0.0437126
0.0437131
0.0436385
0.0421012
0.043912
0.0439115
0.0439111
0.0439105
0.0439114
0.0439116
0.043879
0.0427085
0.0441219
0.044122
0.0441215
0.044121
0.0441218
0.0441218
0.0440901
0.0433057
0.0443442
0.0443449
0.0443449
0.0443447
0.0443448
0.0443448
0.0443415
0.043918
0.0445815
0.0445823
0.0445829
0.0445829
0.0445825
0.0445822
0.0445762
0.0444997
0.0448381
0.0448368
0.0448372
0.0448371
0.044837
0.0448378
0.0448318
0.045042
0.045114
0.0451123
0.0451117
0.0451117
0.0451119
0.0451136
0.0451127
0.0454093
0.0454104
0.04541
0.0454097
0.0454095
0.0454097
0.0454104
0.0454084
0.0457373
0.0457346
0.0457347
0.0457353
0.0457352
0.0457354
0.0457347
0.0457324
0.0460938
0.0460922
0.0460961
0.0460976
0.0460978
0.0460977
0.046096
0.0460909
0.0464879
0.0464881
0.0464913
0.046492
0.046492
0.0464918
0.0464908
0.0464864
0.046931
0.04693
0.0469319
0.0469322
0.0469322
0.0469325
0.0469311
0.046927
0.0474322
0.0474324
0.047434
0.0474329
0.0474321
0.0474336
0.0474337
0.0474291
0.0480108
0.0480104
0.04801
0.0480093
0.0480088
0.0480096
0.0480104
0.0480096
0.0486829
0.048681
0.0486789
0.048678
0.0486776
0.0486783
0.0486801
0.0486817
0.0389372
0.0428491
0.042841
0.0428399
0.0428379
0.0428422
0.0428402
0.0427803
0.0395978
0.0430356
0.0430273
0.0430277
0.043027
0.043028
0.0430267
0.042972
0.0401291
0.0431958
0.0431881
0.0431897
0.04319
0.0431888
0.0431876
0.0431594
0.0406882
0.0433404
0.0433332
0.0433348
0.0433356
0.0433344
0.043333
0.0433362
0.0412213
0.0435107
0.0435079
0.0435095
0.0435103
0.043509
0.0435076
0.0435133
0.041739
0.0436935
0.0436922
0.0436937
0.0436943
0.0436933
0.043692
0.0436967
0.0422833
0.043888
0.0438882
0.0438897
0.0438902
0.0438893
0.0438879
0.0438928
0.0427279
0.0440952
0.0440956
0.0440972
0.0440976
0.0440968
0.0440953
0.044103
0.0429653
0.044316
0.044316
0.0443173
0.0443179
0.044317
0.0443159
0.0443196
0.043459
0.0445518
0.0445508
0.0445517
0.0445524
0.0445514
0.044551
0.0445523
0.043803
0.0448048
0.0448027
0.0448023
0.0448032
0.044802
0.0448033
0.0448043
0.0442309
0.0450791
0.0450761
0.045073
0.0450742
0.0450728
0.0450771
0.0450777
0.0450094
0.0453729
0.0453724
0.0453705
0.0453691
0.0453705
0.0453727
0.0453719
0.0456882
0.0456924
0.045691
0.0456912
0.0456903
0.045692
0.0456912
0.0456914
0.0460432
0.0460449
0.046051
0.0460564
0.0460561
0.0460559
0.0460491
0.046043
0.0464299
0.0464361
0.0464411
0.0464447
0.0464456
0.046444
0.04644
0.0464329
0.0468637
0.0468703
0.0468772
0.0468853
0.046886
0.0468842
0.0468755
0.0468666
0.0474334
0.0473649
0.0473707
0.0473763
0.0473775
0.0473751
0.0473692
0.0474384
0.0480123
0.0479298
0.0479311
0.0479339
0.0479349
0.0479331
0.0479306
0.0480135
0.0486796
0.048678
0.0486784
0.048679
0.0486792
0.0486787
0.048678
0.0486788
0.0389903
0.0428503
0.0430523
0.0443135
0.0447101
0.043586
0.0428478
0.0428091
0.0396531
0.0430366
0.0431454
0.0439696
0.0444044
0.0434602
0.0430331
0.0430016
0.0401997
0.0431968
0.0432552
0.0438513
0.0443712
0.0434448
0.043193
0.0431821
0.0407136
0.0433515
0.0433436
0.0435146
0.0437251
0.0434457
0.0433385
0.0433443
0.0412363
0.0435146
0.0435182
0.0436253
0.0438515
0.0435728
0.0435126
0.043524
0.0417813
0.0436925
0.0437018
0.0438052
0.044019
0.0437561
0.0436962
0.0437075
0.0422444
0.0438865
0.043898
0.0440035
0.0441176
0.0439539
0.0438923
0.0438995
0.0428352
0.0440953
0.0441058
0.0442142
0.0439742
0.0441634
0.0441003
0.0441021
0.0430978
0.0443178
0.0443083
0.0443694
0.0446055
0.0443579
0.0443068
0.0443237
0.0432903
0.0445553
0.0445457
0.0446098
0.0447497
0.0445925
0.0445439
0.0445567
0.0435906
0.0448079
0.0447959
0.044859
0.045005
0.0448413
0.0447942
0.0448068
0.0442385
0.0450786
0.0450642
0.0451003
0.0452081
0.0450938
0.0450636
0.0450777
0.045015
0.0453735
0.0453554
0.0453798
0.0454697
0.0453752
0.0453523
0.0453724
0.0456887
0.0456925
0.045674
0.0456836
0.0457317
0.045681
0.0456727
0.0456909
0.0460436
0.0460465
0.0460275
0.0460308
0.046041
0.0460305
0.0460264
0.0460443
0.0464302
0.0464382
0.0464211
0.0464328
0.0464389
0.0464321
0.0464194
0.0464341
0.0468627
0.0468733
0.0468834
0.0468915
0.0468975
0.0468893
0.0468815
0.0468679
0.0474271
0.0473628
0.0473715
0.0473815
0.047384
0.0473793
0.0473693
0.0474336
0.0480094
0.0479292
0.0479355
0.047937
0.0479372
0.0479368
0.0479349
0.048012
0.0486787
0.0486787
0.0486796
0.0486798
0.0486799
0.0486797
0.0486792
0.0486787
0.0389921
0.0428495
0.0430935
0.0708637
0.0821215
0.0442581
0.042853
0.0428134
0.0396643
0.0430358
0.0431854
0.0780161
0.0887731
0.0439816
0.0430382
0.043009
0.0402284
0.0431958
0.0432972
0.084971
0.096309
0.043794
0.0431983
0.0431781
0.0407378
0.0433437
0.043369
0.0711575
0.135495
0.0443288
0.0433489
0.0433406
0.0412546
0.0435141
0.0435446
0.0781358
0.186634
0.0445175
0.0435233
0.0435177
0.0418048
0.0436934
0.0437303
0.0893198
0.26695
0.0440192
0.0437075
0.0437025
0.0422549
0.0438879
0.0439284
0.101293
0.373467
0.0421586
0.0439045
0.0438954
0.042857
0.0440962
0.0441375
0.0947859
0.478715
0.0383297
0.0441133
0.0441015
0.0431426
0.0443182
0.0443356
0.033488
0.54351
0.0337914
0.0443252
0.0443231
0.0433206
0.0445563
0.0445706
0.0466623
0.355241
0.0456296
0.0445587
0.0445576
0.0435811
0.0448096
0.0448199
0.0467901
0.380736
0.0458307
0.0448086
0.0448077
0.0442452
0.0450801
0.0450855
0.046613
0.488968
0.0461877
0.0450768
0.0450787
0.0450127
0.0453742
0.0453714
0.0467137
0.654599
0.0463212
0.0453646
0.0453726
0.0456886
0.0456927
0.0456831
0.046394
0.0461852
0.0456785
0.0456908
0.0460439
0.0460508
0.0460369
0.0460964
0.046725
0.0460845
0.0460352
0.0460472
0.0464301
0.0464373
0.0464261
0.046437
0.0464473
0.0464346
0.0464248
0.0464337
0.046862
0.046873
0.0468833
0.0468956
0.0469004
0.0468923
0.0468813
0.0468678
0.0474253
0.0473614
0.0473726
0.0473826
0.0473849
0.0473807
0.0473693
0.0474326
0.0480091
0.0479284
0.0479365
0.0479375
0.0479377
0.0479374
0.0479358
0.0480118
0.0486788
0.0486789
0.0486797
0.04868
0.04868
0.0486799
0.0486794
0.0486789
0.0389459
0.0428485
0.0429012
0.0430369
0.0429946
0.0430619
0.0428425
0.0427721
0.0396212
0.0430349
0.04306
0.0431691
0.0431693
0.0431495
0.0430289
0.0429647
0.0401714
0.0431956
0.0432063
0.04328
0.0432913
0.0432552
0.0431895
0.043181
0.0407137
0.043354
0.0433396
0.0434039
0.0434422
0.0433863
0.0433361
0.0433421
0.0412362
0.0435204
0.0435132
0.0435474
0.0435921
0.0435335
0.04351
0.0435187
0.0417477
0.0436935
0.0436963
0.0437297
0.0437737
0.0437168
0.0436935
0.043699
0.0422507
0.0438862
0.0438921
0.0439252
0.0439692
0.0439123
0.0438897
0.0438937
0.0427426
0.0440954
0.0440998
0.0441319
0.0441789
0.0441193
0.0440975
0.0441038
0.0430425
0.0443179
0.0443064
0.0443426
0.0444115
0.0443353
0.0443052
0.044324
0.0432864
0.0445544
0.0445435
0.0445761
0.0446388
0.0445681
0.0445421
0.0445553
0.043645
0.0448073
0.0447937
0.0448265
0.0448897
0.0448178
0.0447923
0.0448063
0.0442261
0.0450782
0.0450626
0.0450867
0.0451578
0.0450823
0.0450621
0.0450777
0.0450106
0.045373
0.0453516
0.0453698
0.0454262
0.0453659
0.0453542
0.0453724
0.0456885
0.0456922
0.0456742
0.0456779
0.0457088
0.0456762
0.0456733
0.0456911
0.0460434
0.0460456
0.0460266
0.0460293
0.0460378
0.0460291
0.0460262
0.0460437
0.0464305
0.0464377
0.04642
0.0464319
0.0464348
0.0464313
0.0464192
0.0464342
0.0468639
0.0468727
0.0468834
0.0468897
0.046895
0.0468883
0.0468814
0.0468682
0.047431
0.0473634
0.0473716
0.0473801
0.0473831
0.047378
0.0473697
0.0474366
0.0480107
0.0479289
0.0479352
0.0479366
0.047937
0.0479364
0.0479341
0.0480127
0.0486786
0.0486783
0.0486791
0.0486796
0.0486796
0.0486794
0.0486787
0.0486783
0.0385304
0.0428409
0.0428386
0.042838
0.0428381
0.042838
0.042839
0.0426884
0.0392497
0.0430274
0.043025
0.0430249
0.043025
0.043025
0.0430254
0.042875
0.0397861
0.0431881
0.0431861
0.0431867
0.0431868
0.0431866
0.0431866
0.0430345
0.0403338
0.0433538
0.0433536
0.0433544
0.0433546
0.0433542
0.0433542
0.04322
0.0409435
0.0435302
0.0435298
0.0435307
0.0435307
0.0435305
0.0435301
0.0433937
0.0415332
0.0437163
0.0437162
0.0437167
0.0437166
0.0437166
0.043716
0.0435817
0.0421534
0.0439138
0.0439137
0.043914
0.0439139
0.043914
0.0439133
0.043778
0.0427227
0.0441231
0.0441222
0.0441225
0.0441223
0.0441225
0.044122
0.0439825
0.0433135
0.044316
0.0443152
0.0443156
0.0443155
0.0443156
0.0443149
0.0443259
0.0438947
0.0445523
0.0445501
0.0445504
0.0445505
0.0445502
0.0445495
0.0445482
0.0443984
0.0448044
0.0448026
0.0448023
0.0448023
0.0448013
0.0448021
0.0448032
0.0449459
0.0450765
0.0450751
0.0450732
0.0450725
0.0450726
0.0450754
0.0450778
0.0454239
0.0453716
0.045371
0.0453698
0.0453685
0.0453699
0.0453711
0.0453719
0.0457359
0.0456903
0.0456893
0.0456899
0.045689
0.0456905
0.0456894
0.0456907
0.0460908
0.0460432
0.04605
0.0460533
0.0460529
0.0460534
0.0460479
0.0460428
0.046485
0.0464341
0.0464384
0.0464411
0.0464411
0.0464412
0.0464371
0.0464323
0.0469275
0.0468681
0.0468728
0.0468776
0.0468777
0.0468779
0.0468706
0.0469321
0.0474326
0.047436
0.04744
0.0474415
0.0474423
0.0474411
0.0474381
0.0474349
0.048013
0.0480133
0.0480137
0.0480146
0.0480146
0.0480141
0.0480135
0.0480135
0.0486819
0.0486794
0.0486785
0.0486786
0.0486786
0.0486784
0.0486788
0.0486804
0.0402116
0.041203
0.0411957
0.0411947
0.0411948
0.041197
0.041201
0.0402342
0.0407733
0.0429192
0.0428806
0.0428967
0.0429062
0.0428837
0.0428941
0.0408268
0.0390944
0.0428559
0.0428114
0.0428257
0.0428351
0.0428145
0.0428258
0.0430161
0.0398779
0.0429952
0.0429502
0.0429646
0.0429744
0.0429532
0.0429651
0.0428493
0.0404361
0.0431541
0.0431108
0.0431245
0.0431336
0.0431138
0.0431286
0.0429955
0.0411082
0.0433932
0.043341
0.043337
0.0433256
0.0433426
0.0433702
0.0432571
0.0418379
0.043678
0.0436203
0.0436133
0.0435945
0.043624
0.0436524
0.0436011
0.0425437
0.0439843
0.0439408
0.0439118
0.0438894
0.0439349
0.0439573
0.0439596
0.0432451
0.0443033
0.0442883
0.0442353
0.0442226
0.0442666
0.0442901
0.0442924
0.0438329
0.0445636
0.0445857
0.0445758
0.0445748
0.0445765
0.0445825
0.044526
0.0443799
0.0448188
0.0448394
0.044839
0.0448389
0.0448391
0.044836
0.0447785
0.0449073
0.0451121
0.045114
0.0451141
0.0451141
0.045114
0.0451151
0.0450624
0.0454076
0.0454068
0.045411
0.0454109
0.0454109
0.0454109
0.0454115
0.0453533
0.0457855
0.0457314
0.0457356
0.0457358
0.045736
0.0457357
0.0457358
0.0456714
0.0461493
0.046089
0.0460934
0.0460947
0.0460952
0.0460942
0.0460927
0.0460199
0.0465498
0.0464844
0.0464882
0.0464887
0.0464888
0.0464886
0.0464878
0.046406
0.047002
0.0469262
0.0469282
0.0469284
0.0469284
0.0469283
0.0469281
0.0468373
0.0475166
0.0474269
0.0474277
0.0474276
0.0474276
0.0474276
0.0474279
0.0473248
0.0481082
0.048004
0.0480041
0.048004
0.0480039
0.0480041
0.0480042
0.0478973
0.0488783
0.0486782
0.0486771
0.0486769
0.0486769
0.0486769
0.0486777
0.0488783
0.0433329
0.0434662
0.0434631
0.0433541
0.0433362
0.0434763
0.0434658
0.0433344
0.0434634
0.0434646
0.0433397
0.0433868
0.0434691
0.0434912
0.0433356
0.043465
0.0434658
0.0434025
0.0434375
0.0435053
0.0435447
0.0433348
0.0434658
0.043465
0.0434378
0.0434037
0.0435448
0.0435055
0.0433332
0.0434646
0.0434634
0.043388
0.0433396
0.0434914
0.043469
0.0433397
0.0434631
0.0434661
0.0433362
0.043354
0.0434658
0.0434763
0.0435076
0.0436465
0.0436447
0.0435204
0.0435101
0.0436472
0.0436466
0.0435091
0.043645
0.0436461
0.0435133
0.0435337
0.0436496
0.0436698
0.0435103
0.0436465
0.0436472
0.0435475
0.0435872
0.043683
0.0437237
0.0435095
0.0436472
0.0436465
0.0435874
0.0435475
0.0437245
0.043683
0.0435078
0.0436461
0.043645
0.0435337
0.0435132
0.0436697
0.0436496
0.0435106
0.0436447
0.0436463
0.04351
0.0435203
0.0436466
0.0436472
0.043692
0.0438377
0.0438379
0.0436935
0.0436935
0.0438361
0.0438394
0.0436933
0.0438382
0.0438393
0.0436963
0.0437168
0.0438421
0.0438624
0.0436943
0.0438396
0.0438401
0.0437299
0.0437713
0.0438754
0.0439217
0.0436937
0.0438401
0.0438396
0.0437724
0.0437299
0.0439239
0.0438755
0.0436922
0.0438393
0.0438381
0.0437168
0.0436963
0.0438624
0.0438421
0.0436934
0.0438379
0.0438377
0.0436935
0.0436935
0.0438395
0.0438361
0.0438879
0.044042
0.0440423
0.0438862
0.0438895
0.0440416
0.0440443
0.0438893
0.0440426
0.0440438
0.0438921
0.0439123
0.0440467
0.0440662
0.0438902
0.0440441
0.0440446
0.0439253
0.043974
0.0440791
0.0441377
0.0438897
0.0440446
0.0440442
0.0439765
0.0439254
0.0441399
0.0440793
0.0438882
0.0440438
0.0440426
0.0439123
0.0438922
0.0440663
0.0440468
0.043888
0.0440423
0.0440419
0.0438895
0.0438862
0.0440443
0.0440416
0.0440954
0.0442595
0.0442595
0.0440953
0.0440974
0.044261
0.0442617
0.0440968
0.0442596
0.0442607
0.0440998
0.0441191
0.0442641
0.0442827
0.0440976
0.044261
0.0442616
0.0441319
0.0441936
0.0442954
0.0443496
0.0440972
0.0442616
0.044261
0.0441952
0.0441321
0.0443489
0.0442955
0.0440956
0.0442607
0.0442596
0.0441192
0.0440999
0.0442828
0.0442641
0.0440951
0.0442594
0.0442594
0.0440974
0.0440953
0.0442617
0.044261
0.0443159
0.0444914
0.0444907
0.0443179
0.0443052
0.0444938
0.044512
0.044317
0.0444907
0.0444914
0.0443064
0.044335
0.0445131
0.0445377
0.0443179
0.0444917
0.0444924
0.0443427
0.044401
0.0445461
0.0446073
0.0443173
0.0444924
0.0444917
0.0443997
0.0443428
0.0446076
0.0445461
0.044316
0.0444913
0.0444907
0.0443351
0.0443064
0.0445377
0.0445131
0.0443159
0.0444907
0.0444914
0.0443051
0.0443179
0.0445119
0.0444938
0.044551
0.0447396
0.0447384
0.0445544
0.0445422
0.0447424
0.0447602
0.0445514
0.0447379
0.0447377
0.0445434
0.0445679
0.0447614
0.0447858
0.0445524
0.0447379
0.0447386
0.0445764
0.0446381
0.0447947
0.0448574
0.0445518
0.0447386
0.0447379
0.0446382
0.0445763
0.0448574
0.0447944
0.0445508
0.0447376
0.0447379
0.0445679
0.0445434
0.0447856
0.0447614
0.0445518
0.0447384
0.0447397
0.0445421
0.0445544
0.0447602
0.0447425
0.0448033
0.0450086
0.0450067
0.0448072
0.0447924
0.0450088
0.0450273
0.044802
0.0450054
0.0450028
0.0447936
0.044818
0.0450275
0.0450655
0.0448032
0.0450031
0.0450048
0.0448267
0.0448895
0.0450698
0.0451411
0.0448023
0.0450048
0.0450031
0.0448895
0.0448264
0.0451411
0.0450695
0.0448027
0.0450028
0.0450053
0.0448177
0.0447936
0.0450651
0.0450275
0.0448049
0.0450065
0.0450081
0.0447924
0.0448073
0.0450273
0.0450087
0.0450773
0.0452972
0.045297
0.0450784
0.0450622
0.0452971
0.0453167
0.0450728
0.0452964
0.045294
0.0450626
0.0450826
0.0453172
0.0453473
0.0450742
0.0452937
0.0452916
0.0450869
0.0451576
0.0453508
0.0454098
0.045073
0.045292
0.0452928
0.0451576
0.0450866
0.0454098
0.0453509
0.045076
0.0452938
0.0452964
0.0450822
0.0450625
0.0453472
0.0453143
0.0450782
0.0452969
0.0452971
0.0450622
0.0450782
0.0453136
0.0452969
0.0453727
0.0456097
0.0456088
0.0453731
0.0453542
0.0456096
0.0456318
0.0453707
0.0456086
0.0456082
0.0453549
0.045366
0.0456326
0.0456566
0.0453686
0.0456078
0.0456073
0.0453696
0.0454263
0.0456585
0.04569
0.0453698
0.0456071
0.045608
0.0454263
0.0453696
0.0456899
0.0456584
0.0453724
0.0456082
0.0456086
0.045366
0.0453516
0.0456566
0.0456326
0.0453729
0.0456088
0.0456097
0.0453511
0.0453731
0.0456318
0.0456096
0.0456912
0.045954
0.0459556
0.0456923
0.0456733
0.0459549
0.0459802
0.0456916
0.0459571
0.0459616
0.0456742
0.0456761
0.0459805
0.0460061
0.0456907
0.0459621
0.0459616
0.0456779
0.0457087
0.0460071
0.0460167
0.0456924
0.0459614
0.045962
0.0457086
0.0456779
0.0460167
0.0460071
0.045691
0.0459616
0.0459571
0.0456762
0.0456742
0.0460061
0.0459805
0.0456924
0.0459556
0.045954
0.0456733
0.0456923
0.0459802
0.0459549
0.0460491
0.046334
0.0463393
0.0460456
0.0460261
0.046336
0.046369
0.0460559
0.0463404
0.0463429
0.0460266
0.0460286
0.0463697
0.0463801
0.0460563
0.0463434
0.0463443
0.0460293
0.0460377
0.0463808
0.0463868
0.0460563
0.0463443
0.0463434
0.0460376
0.0460293
0.0463868
0.0463808
0.046051
0.0463429
0.0463404
0.0460286
0.0460266
0.0463801
0.0463695
0.0460449
0.0463393
0.0463341
0.0460261
0.0460456
0.0463687
0.046336
0.04644
0.0467569
0.0467619
0.0464379
0.0464192
0.0467591
0.046796
0.046444
0.0467634
0.0467692
0.0464202
0.0464313
0.0467972
0.0468029
0.0464456
0.0467705
0.0467718
0.0464319
0.0464376
0.0468035
0.0468098
0.0464447
0.0467719
0.0467705
0.0464376
0.0464319
0.0468098
0.0468035
0.0464412
0.0467692
0.0467634
0.0464313
0.04642
0.0468029
0.0467972
0.0464362
0.0467618
0.0467569
0.0464189
0.0464378
0.046796
0.0467591
0.0468755
0.0472353
0.0472401
0.0468728
0.0468814
0.0472348
0.0472413
0.0468842
0.0472417
0.0472463
0.0468834
0.0468887
0.0472431
0.0472492
0.046886
0.0472473
0.0472485
0.0468907
0.0468955
0.0472521
0.0472567
0.0468852
0.0472487
0.0472473
0.0468955
0.0468907
0.0472567
0.0472521
0.0468772
0.0472463
0.0472417
0.0468887
0.0468834
0.0472492
0.0472431
0.0468703
0.0472401
0.0472353
0.0468814
0.0468728
0.0472413
0.0472348
0.0473692
0.047782
0.0477834
0.0473635
0.0473697
0.0477791
0.047785
0.0473751
0.0477838
0.0477859
0.0473716
0.0473782
0.0477869
0.0477895
0.0473774
0.0477868
0.047788
0.0473807
0.0473834
0.0477899
0.0477904
0.0473763
0.047788
0.0477868
0.0473834
0.0473807
0.0477904
0.0477899
0.0473707
0.0477859
0.0477838
0.0473782
0.0473716
0.0477895
0.0477869
0.0473649
0.0477834
0.047782
0.0473697
0.0473635
0.047785
0.0477791
0.0479306
0.0483365
0.048337
0.047929
0.0479341
0.0483372
0.0483385
0.0479331
0.0483376
0.0483385
0.0479352
0.0479364
0.0483392
0.0483396
0.0479349
0.0483391
0.0483393
0.0479365
0.0479369
0.04834
0.0483402
0.0479339
0.0483393
0.0483391
0.0479369
0.0479365
0.0483402
0.04834
0.0479311
0.0483385
0.0483376
0.0479364
0.0479352
0.0483396
0.0483392
0.0479298
0.048337
0.0483365
0.0479341
0.047929
0.0483385
0.0483372
0.0433385
0.0434706
0.0434682
0.0433437
0.043349
0.0434697
0.0434788
0.0434521
0.0434739
0.0435337
0.0433691
0.0437205
0.0434999
0.0437723
0.0437281
0.0435874
0.0438162
0.0720722
0.140144
0.0760741
0.174411
0.0435145
0.0438133
0.0435865
0.134727
0.0862727
0.169323
0.0959277
0.0433435
0.0435321
0.0434738
0.0442863
0.043369
0.0444378
0.0435002
0.0433506
0.0434682
0.0434705
0.043349
0.0433435
0.0434789
0.0434696
0.0435126
0.0436455
0.0436492
0.0435141
0.0435232
0.0436463
0.0436603
0.0435739
0.0436549
0.0437089
0.0435446
0.0437261
0.0436827
0.0433127
0.0438542
0.043758
0.0439778
0.0775353
0.188431
0.0839255
0.24187
0.0436246
0.0439779
0.0437574
0.183678
0.0994773
0.238872
0.113451
0.0435181
0.0437087
0.0436549
0.044443
0.043545
0.044101
0.0436835
0.0435145
0.0436493
0.0436455
0.0435233
0.043514
0.0436604
0.0436462
0.0436962
0.0438365
0.0438422
0.0436934
0.0437074
0.043838
0.0438539
0.0437562
0.0438478
0.0439031
0.0437302
0.0431217
0.0438778
0.0422647
0.0440189
0.0439527
0.0441173
0.0863881
0.262493
0.0940668
0.334345
0.0438048
0.044112
0.0439532
0.260362
0.118988
0.336009
0.138325
0.0437018
0.0439034
0.0438479
0.0438663
0.043731
0.0427024
0.043879
0.0436924
0.0438422
0.0438365
0.0437075
0.0436933
0.0438542
0.0438379
0.0438923
0.0440417
0.0440471
0.0438879
0.0439042
0.0440428
0.0440596
0.0439534
0.0440527
0.0441088
0.0439284
0.0418335
0.0440841
0.0401753
0.044134
0.0441603
0.0440947
0.0958565
0.359434
0.0941219
0.432374
0.0440042
0.044033
0.0441616
0.362799
0.144585
0.443275
0.156593
0.043898
0.0441098
0.0440527
0.0420634
0.0439296
0.03942
0.0440857
0.0438865
0.0440471
0.0440417
0.0439045
0.0438878
0.0440599
0.0440428
0.0441003
0.0442608
0.0442647
0.0440962
0.0441129
0.0442613
0.0442777
0.0441622
0.04427
0.044327
0.0441374
0.0400132
0.0443022
0.0428853
0.0440614
0.0443803
0.0445445
0.0889956
0.451256
0.0558246
0.474971
0.0442155
0.0445275
0.0443832
0.46579
0.154943
0.501208
0.11399
0.0441059
0.0443285
0.0442701
0.0384738
0.044139
0.0392835
0.0443033
0.0440952
0.0442647
0.0442608
0.0441132
0.0440962
0.0442779
0.0442612
0.0443068
0.0444947
0.0445137
0.0443182
0.044325
0.0444953
0.0445288
0.0443571
0.0445155
0.044562
0.0443354
0.0432833
0.0445402
0.0456234
0.0446094
0.0445795
0.0447228
0.0344635
0.527232
0.0466526
0.416576
0.0443703
0.0447197
0.04458
0.539569
0.0382025
0.355094
0.0465777
0.0443083
0.0445624
0.0445155
0.0346011
0.0443359
0.0456074
0.0445399
0.0443178
0.0445137
0.0444946
0.0443252
0.0443182
0.0445285
0.0444953
0.0445439
0.0447433
0.0447621
0.0445563
0.044559
0.0447451
0.0447769
0.0445922
0.0447638
0.0448095
0.0445704
0.0456481
0.0447878
0.0458317
0.0447508
0.0448272
0.0449732
0.0466602
0.404407
0.0467643
0.384324
0.0446102
0.0449729
0.044827
0.344886
0.0465509
0.374376
0.0467012
0.0445457
0.0448094
0.0447637
0.0456293
0.04457
0.0458021
0.0447875
0.0445553
0.0447621
0.0447433
0.0445587
0.0445563
0.0447766
0.044745
0.0447942
0.0450091
0.0450286
0.0448096
0.0448089
0.0450103
0.0450422
0.0448415
0.0450293
0.0450772
0.0448197
0.0458602
0.045051
0.0461816
0.0450052
0.0450832
0.0451931
0.0467868
0.385624
0.0466019
0.465077
0.0448588
0.0451931
0.0450827
0.38131
0.046727
0.476664
0.0465937
0.0447958
0.0450766
0.0450292
0.0458307
0.0448194
0.0461716
0.0450511
0.0448079
0.0450286
0.045009
0.0448087
0.0448096
0.0450422
0.0450103
0.0450636
0.0452974
0.0453165
0.0450801
0.0450768
0.0452984
0.0453268
0.0450943
0.0453175
0.0453567
0.0450854
0.0461942
0.0453342
0.0463178
0.0452081
0.0453615
0.045454
0.0466132
0.474528
0.0467217
0.647034
0.0450998
0.0454541
0.0453616
0.485993
0.04661
0.640232
0.0467393
0.0450642
0.0453567
0.0453159
0.0461879
0.0450855
0.0463304
0.0453344
0.0450786
0.0453148
0.0452974
0.0450768
0.0450801
0.0453268
0.0452984
0.0453542
0.0456098
0.0456315
0.0453742
0.0453646
0.0456103
0.0456382
0.0453752
0.0456328
0.0456616
0.0453714
0.0463098
0.0456433
0.0461934
0.0454697
0.0456644
0.0457145
0.0467136
0.657964
0.0464114
0.64507
0.0453799
0.0457144
0.0456638
0.651571
0.0467288
0.647237
0.0464111
0.0453531
0.0456614
0.0456327
0.0463208
0.0453715
0.0461936
0.0456432
0.0453735
0.0456315
0.0456098
0.0453646
0.0453742
0.0456381
0.0456101
0.0456727
0.0459554
0.0459806
0.045693
0.0456785
0.0459583
0.0459897
0.045681
0.0459815
0.0460076
0.0456832
0.0461841
0.045992
0.0460725
0.0457319
0.0460084
0.0460208
0.0463937
0.0460887
0.0389359
0.0456834
0.0460207
0.0460084
0.0463935
0.0389358
0.0460887
0.045674
0.0460076
0.0459815
0.0461844
0.0456831
0.0460725
0.0459921
0.0456923
0.0459806
0.0459554
0.0456785
0.0456926
0.0459899
0.0459583
0.0460264
0.0463367
0.0463695
0.0460507
0.0460352
0.0463368
0.0463738
0.0460305
0.0463703
0.0463817
0.046037
0.0460843
0.0463756
0.0463847
0.0460411
0.0463824
0.0463887
0.0460961
0.046725
0.0463868
0.0463991
0.0460308
0.0463887
0.0463824
0.046725
0.0460961
0.0463991
0.0463868
0.0460275
0.0463817
0.0463698
0.0460843
0.046037
0.0463847
0.0463757
0.0460465
0.0463689
0.0463367
0.0460352
0.0460508
0.0463739
0.0463368
0.0464199
0.0467598
0.0467961
0.0464374
0.0464248
0.0467595
0.0467961
0.0464321
0.0467972
0.046803
0.0464261
0.0464343
0.0467971
0.046807
0.0464389
0.0468037
0.0468114
0.0464367
0.0464471
0.0468093
0.0468148
0.0464328
0.0468114
0.0468037
0.0464471
0.0464367
0.0468148
0.0468093
0.0464207
0.046803
0.0467972
0.0464343
0.0464261
0.046807
0.0467971
0.0464381
0.0467961
0.0467597
0.0464249
0.0464373
0.0467961
0.0467594
0.0468815
0.0472343
0.0472409
0.046873
0.0468813
0.0472334
0.0472407
0.0468893
0.0472429
0.0472506
0.0468833
0.0468923
0.0472436
0.0472528
0.0468975
0.0472532
0.0472573
0.0468955
0.0469001
0.0472547
0.0472583
0.0468915
0.0472573
0.0472532
0.0469001
0.0468955
0.0472583
0.0472547
0.0468834
0.0472506
0.0472429
0.0468923
0.0468833
0.0472528
0.0472436
0.0468732
0.0472409
0.0472343
0.0468813
0.046873
0.0472407
0.0472334
0.0473693
0.0477786
0.0477856
0.0473614
0.0473693
0.0477775
0.0477867
0.0473793
0.0477874
0.0477902
0.0473726
0.0473807
0.0477885
0.0477909
0.047384
0.0477904
0.0477907
0.0473826
0.0473849
0.0477911
0.0477913
0.0473815
0.0477907
0.0477904
0.0473849
0.0473826
0.0477913
0.0477911
0.0473715
0.0477902
0.0477874
0.0473807
0.0473726
0.0477909
0.0477885
0.0473628
0.0477856
0.0477786
0.0473693
0.0473614
0.0477867
0.0477775
0.0479349
0.0483382
0.0483394
0.0479284
0.0479358
0.0483384
0.0483399
0.0479368
0.04834
0.0483403
0.0479365
0.0479374
0.0483403
0.0483406
0.0479372
0.0483405
0.0483406
0.0479375
0.0479377
0.0483407
0.0483408
0.047937
0.0483406
0.0483405
0.0479377
0.0479375
0.0483408
0.0483407
0.0479355
0.0483403
0.04834
0.0479374
0.0479365
0.0483406
0.0483403
0.0479292
0.0483394
0.0483382
0.0479358
0.0479284
0.0483399
0.0483384
0.0433489
0.0434698
0.0434787
0.0433504
0.0433384
0.0434704
0.0434682
0.0438125
0.0434999
0.0437979
0.0433436
0.0434438
0.0434738
0.0435324
0.137076
0.0759933
0.173411
0.0435097
0.0437256
0.0435863
0.0438052
0.087167
0.170827
0.0975614
0.0437118
0.0435049
0.043756
0.043584
0.0433689
0.0444902
0.0435
0.0434506
0.0433434
0.0435331
0.0434737
0.0433435
0.0434788
0.0434696
0.0433384
0.0433511
0.0434682
0.0434703
0.0435232
0.0436463
0.0436602
0.0435144
0.0435125
0.0436455
0.0436492
0.0437145
0.0436828
0.0432873
0.0435181
0.0435735
0.0436549
0.0437093
0.188423
0.0860407
0.245644
0.0436251
0.0438392
0.0437585
0.0439404
0.101515
0.243383
0.117126
0.043762
0.0436234
0.0436814
0.0437578
0.0435448
0.0442357
0.0436833
0.0435734
0.043518
0.0437088
0.0436549
0.043514
0.0436604
0.0436462
0.0435125
0.0435144
0.0436492
0.0436454
0.0437073
0.043838
0.0438539
0.0436924
0.0436961
0.0438365
0.0438421
0.0430892
0.0438779
0.0420718
0.0437017
0.0437565
0.0438478
0.0439034
0.267703
0.0986899
0.344284
0.0438057
0.0439687
0.0439535
0.0439869
0.12328
0.344522
0.144886
0.0436118
0.0438053
0.0431913
0.0439536
0.0437309
0.042803
0.0438789
0.0437562
0.0437018
0.0439036
0.0438479
0.0436932
0.0438542
0.0438379
0.0436961
0.0436924
0.0438422
0.0438364
0.0439042
0.0440428
0.0440596
0.0438865
0.0438922
0.0440417
0.0440471
0.0415036
0.0440841
0.0395286
0.0438979
0.0439537
0.0440526
0.0441092
0.3709
0.100531
0.447473
0.0440044
0.0439583
0.0441617
0.0436692
0.151784
0.454918
0.164562
0.0429851
0.0440046
0.0421263
0.0441619
0.0439296
0.0394418
0.0440858
0.0439541
0.043898
0.0441101
0.0440528
0.0438878
0.0440599
0.0440428
0.0438923
0.0438864
0.0440471
0.0440417
0.0441129
0.0442613
0.0442777
0.0440952
0.0441002
0.0442608
0.0442646
0.0393681
0.0443023
0.0425777
0.0441057
0.0441626
0.04427
0.0443274
0.467281
0.0579556
0.496992
0.0442157
0.0435589
0.0443821
0.0443406
0.162793
0.51989
0.119744
0.0418952
0.044216
0.0432754
0.0443852
0.0441391
0.0387707
0.0443033
0.0441637
0.0441059
0.0443287
0.0442701
0.0440962
0.0442779
0.0442612
0.0441003
0.0440952
0.0442646
0.0442609
0.044325
0.0444953
0.0445288
0.0443178
0.0443068
0.0444946
0.0445138
0.0429004
0.0445404
0.0456245
0.0443083
0.0443576
0.0445155
0.0445623
0.53215
0.0466574
0.426454
0.0443696
0.0447162
0.0445798
0.0447247
0.0396977
0.367205
0.0465854
0.0448241
0.0443708
0.0447247
0.0445792
0.044336
0.0456077
0.0445398
0.0443583
0.0443083
0.0445622
0.0445154
0.0443182
0.0445285
0.0444952
0.0443068
0.0443178
0.0445137
0.0444946
0.044559
0.0447451
0.0447769
0.0445553
0.044544
0.0447433
0.0447621
0.0456494
0.044788
0.0458323
0.0445457
0.0445925
0.0447638
0.0448099
0.412863
0.0467678
0.383178
0.04461
0.0447534
0.0448274
0.0449733
0.0465499
0.373878
0.0467009
0.0447549
0.0446094
0.0449733
0.0448272
0.0445699
0.0458022
0.0447874
0.0445923
0.0445457
0.0448095
0.0447637
0.0445563
0.0447765
0.044745
0.0445439
0.0445553
0.044762
0.0447432
0.044809
0.0450103
0.0450422
0.0448079
0.0447943
0.045009
0.0450286
0.0458607
0.0450512
0.0461815
0.0447958
0.0448419
0.0450292
0.0450773
0.383936
0.0466021
0.467421
0.0448593
0.0450053
0.0450831
0.0451954
0.0467265
0.478915
0.0465932
0.0450052
0.044859
0.0451933
0.0450829
0.0448194
0.0461714
0.0450511
0.0448414
0.0447958
0.0450769
0.0450292
0.0448096
0.0450422