/*--------------------------------*- C++ -*----------------------------------*\
| =========                 |                                                 |
| \\      /  F ield         | OpenFOAM: The Open Source CFD Toolbox           |
|  \\    /   O peration     | Version:  2206                                  |
|   \\  /    A nd           | Website:  www.openfoam.com                      |
|    \\/     M anipulation  |                                                 |
\*---------------------------------------------------------------------------*/
FoamFile
{
    version     2.0;
    format      ascii;
    arch        "LSB;label=32;scalar=64";
    class       volScalarField;
    location    "600";
    object      ReThetat;
}
// * * * * * * * * * * * * * * * * * * * * * * * * * * * * * * * * * * * * * //

dimensions      [0 0 0 0 0 0 0];

internalField   nonuniform List<scalar> 
198968
(
508.239
536.264
536.097
536.044
536.063
536.108
536.299
507.98
484.224
479.283
477.422
477.535
477.402
476.895
478.218
483.944
429.499
472.128
469.547
469.707
469.428
469.004
470.278
473.847
430.115
458.35
455.36
455.5
455.141
454.84
456.182
460.271
423.707
444.981
440.774
440.623
440.084
440.151
442.008
447.363
410.048
433.554
429.152
428.16
426.669
428.506
430.199
435.823
401.165
422.101
416.413
415.022
413.151
415.807
417.512
424.73
392.857
408.566
405.601
404.025
403.023
404.952
405.827
411.555
383.908
398.889
397.165
395.305
394.978
396.176
397.068
399.894
376.384
386.95
385.816
385.392
385.34
385.457
385.594
387.346
370.128
374.693
372.914
372.808
372.79
372.818
372.87
374.875
356.907
361.721
359.695
359.677
359.679
359.666
359.72
361.954
341.027
345.778
345.85
345.888
345.899
345.88
345.822
348.143
325.018
329.838
329.797
329.822
329.829
329.819
329.781
332.175
308.872
313.686
313.649
313.642
313.641
313.65
313.63
316.129
292.521
297.319
297.289
297.288
297.29
297.294
297.3
299.861
277.358
280.66
280.645
280.643
280.644
280.649
280.659
283.405
260.295
263.566
263.562
263.561
263.561
263.564
263.57
266.423
242.882
245.851
245.863
245.866
245.867
245.866
245.861
248.586
222.121
227.462
227.475
227.487
227.49
227.483
227.469
222.121
462.253
557.877
557.808
557.756
557.774
557.778
557.812
560.376
451.677
540.93
540.888
540.844
540.875
540.858
540.862
543.554
442.206
526.017
526.008
525.96
525.99
525.976
525.961
528.638
432.895
510.206
510.219
510.187
510.209
510.203
510.145
512.946
422.772
493.257
493.252
493.197
493.219
493.219
493.188
496.123
413.587
474.637
474.73
474.785
474.836
474.76
474.635
476.815
404.841
454.416
454.565
454.618
454.693
454.581
454.489
455.511
397.067
432.572
432.636
432.712
432.785
432.659
432.598
433.81
388.943
408.808
408.794
408.836
408.866
408.807
408.766
408.934
379.293
393.076
393.045
393.003
393.001
393.028
393.034
393.264
369.553
377.302
377.405
377.39
377.398
377.397
377.324
377.454
359.777
361.555
361.709
361.775
361.784
361.75
361.606
361.528
345.611
345.848
345.969
346.061
346.088
346.033
345.903
345.845
329.719
329.897
329.988
330.034
330.054
330.004
329.956
329.921
313.555
313.642
313.518
313.48
313.478
313.471
313.516
313.658
297.175
297.168
297.05
297.016
297.017
297.033
297.081
297.224
280.416
280.445
280.376
280.357
280.356
280.356
280.421
280.556
263.265
263.254
263.205
263.237
263.261
263.217
263.225
263.372
245.481
245.496
245.507
245.529
245.542
245.521
245.502
245.527
227.169
227.224
227.277
227.3
227.31
227.293
227.248
227.208
446.43
557.718
557.469
557.484
557.494
557.448
557.468
558.875
433.281
540.778
540.518
540.539
540.569
540.532
540.49
542.068
422.527
525.821
525.534
525.548
525.609
525.551
525.5
526.989
409.417
512.058
511.721
511.717
511.733
511.716
511.715
511.608
400.462
495.097
494.908
494.91
494.921
494.906
494.897
494.894
391.316
476.879
476.791
476.828
476.861
476.814
476.765
476.679
381.024
457.052
457.075
457.131
457.184
457.11
457.047
456.875
372.149
435.52
435.607
435.644
435.705
435.621
435.571
435.289
324.359
412.064
412.104
412.087
412.094
412.075
412.072
411.974
324.734
395.081
395.136
395.118
395.105
395.124
395.111
395.043
330.26
379.37
379.487
379.535
379.503
379.542
379.441
379.332
336.621
363.621
363.849
364.087
364.05
364.08
363.772
363.612
337.546
347.984
348.23
348.559
348.721
348.506
348.153
347.939
331.806
332.105
332.434
332.719
332.89
332.605
332.355
332.076
315.779
315.786
315.606
315.411
315.433
315.424
315.674
315.845
299.449
299.221
298.999
298.798
298.735
298.838
299.054
299.351
282.77
282.561
282.274
281.942
281.902
281.99
282.348
282.682
263.196
265.387
265.183
264.983
264.939
265.026
265.238
263.09
245.417
247.766
247.725
247.637
247.605
247.661
247.74
245.414
227.252
227.295
227.285
227.27
227.264
227.278
227.297
227.284
445.253
557.672
554.029
537.341
533.57
545.754
557.299
558.894
431.873
540.746
538.563
527.617
523.238
533.834
540.369
542.179
420.05
525.874
524.519
516.894
512.243
521.9
525.475
527.248
407.495
512.454
511.599
509.139
506.954
510.078
511.661
511.549
398.964
495.356
494.869
493.786
491.315
494.406
494.931
494.932
389.072
477.114
476.987
476.361
474.121
476.857
477.026
476.814
380.749
457.298
457.503
457.31
455.994
457.711
457.504
456.882
369.34
435.724
436.168
436.182
437.697
436.521
436.111
435.415
320.601
412.03
413.991
414.04
411.227
414.024
413.955
411.931
328.15
394.905
395.841
395.363
393.963
395.468
395.83
394.848
335.631
379.234
380.113
379.358
378.039
379.582
380.132
379.167
336.751
363.777
364.756
364.584
363.55
364.672
364.718
363.672
337.597
348.278
349.828
350.615
350.161
350.619
349.863
348.148
331.954
332.448
334.266
336.374
337.708
336.251
334.15
332.367
315.803
315.767
316.748
316.553
315.877
316.563
316.785
315.852
299.412
299.036
299.546
298.587
298.023
298.679
299.65
299.254
282.768
282.382
281.884
281.422
281.135
281.543
281.994
282.589
263.377
265.424
265.097
264.718
264.617
264.8
265.185
263.225
245.495
247.779
247.58
247.523
247.511
247.531
247.603
245.454
227.273
227.275
227.254
227.246
227.244
227.249
227.264
227.284
445.397
557.652
553.537
346.853
295.294
538.122
557.265
558.866
432.024
540.675
538.036
314.973
272.747
526.936
540.266
542.209
419.453
525.774
523.832
289.99
252.301
515.953
525.305
527.577
407.125
512.165
511.244
303.624
188.582
491.841
511.485
511.829
398.611
495.287
494.49
275.096
154.127
472.588
494.751
495.148
388.62
477.096
476.626
246.967
123.137
455.678
476.885
477.071
380.551
457.32
457.252
224.614
99.4016
449.618
457.46
457.056
368.913
435.763
435.987
228.449
84.0652
470.362
436.106
435.453
319.84
412.094
413.64
526.192
75.171
530.014
413.687
411.957
327.569
394.886
395.611
377.56
75.9662
385.51
395.68
394.802
335.837
379.165
379.837
363.525
63.7264
371.316
379.976
379.109
336.151
363.76
364.466
352.414
45.2872
355.448
364.526
363.637
337.432
348.429
350.116
340.775
20.4701
343.51
350.025
348.251
332.024
332.659
335.262
338.978
339.301
334.944
332.513
315.796
315.583
316.236
312.557
284.078
313.18
316.329
315.729
299.394
299.012
299.047
297.381
295.924
297.679
299.183
299.224
282.772
282.353
281.791
281.081
280.796
281.264
281.919
282.564
263.43
265.451
265.029
264.632
264.535
264.709
265.156
263.248
245.501
247.797
247.541
247.496
247.483
247.503
247.567
245.457
227.27
227.27
227.25
227.242
227.24
227.246
227.259
227.28
446.623
557.694
556.457
553.833
554.386
553.827
557.395
560.034
433.171
540.712
539.844
538.036
538.079
538.374
540.352
543.273
421.274
525.792
525.071
523.832
523.696
524.235
525.369
527.368
407.798
512.561
511.599
510.647
510.349
510.881
511.65
511.97
399.032
495.575
494.873
494.556
494.156
494.71
494.933
495.323
389.684
477.145
476.965
476.829
476.492
476.944
476.986
477.135
380.565
457.236
457.419
457.576
457.332
457.649
457.384
457.367
370.802
435.623
436.04
436.331
436.165
436.35
435.972
435.275
321.462
411.962
413.937
414.103
413.403
414.089
413.911
411.876
327.868
394.942
395.871
395.685
395.008
395.714
395.873
394.889
333.801
379.258
380.159
379.725
379.096
379.846
380.191
379.197
337.037
363.771
364.778
364.753
364.055
364.827
364.743
363.656
337.639
348.216
349.882
350.621
350.428
350.643
349.633
348.083
331.92
332.361
334.047
336.108
337.271
335.985
333.941
332.284
315.802
315.799
316.784
316.644
316.105
316.656
316.789
315.867
299.408
299.086
299.639
298.773
298.424
298.847
299.703
299.267
282.734
282.422
281.934
281.576
281.334
281.658
282.039
282.593
263.261
265.41
265.11
264.79
264.675
264.871
265.187
263.137
245.462
247.789
247.596
247.541
247.523
247.549
247.631
245.435
227.276
227.287
227.268
227.254
227.252
227.259
227.28
227.294
460.813
557.639
557.54
557.576
557.593
557.558
557.517
561.137
448.967
540.678
540.563
540.574
540.587
540.561
540.531
544.51
439.472
525.742
525.611
525.615
525.633
525.599
525.547
529.824
430.747
509.801
509.724
509.71
509.721
509.703
509.652
514.037
419.26
492.805
492.689
492.664
492.676
492.648
492.634
497.531
407.771
474.288
474.272
474.286
474.316
474.257
474.242
479.636
399.244
454.179
454.289
454.315
454.352
454.278
454.263
460.169
391.167
432.493
432.6
432.623
432.662
432.582
432.579
438.625
382.665
412.017
412.065
412.08
412.107
412.054
412.075
411.646
374.533
395.036
395.132
395.116
395.121
395.126
395.161
395.216
367.624
379.354
379.452
379.476
379.482
379.533
379.475
379.365
357.358
363.702
363.835
363.99
364.043
364.009
363.798
363.588
346.128
347.965
348.158
348.378
348.507
348.334
348.102
347.895
329.867
332.123
332.351
332.515
332.637
332.442
332.295
332.046
313.678
315.824
315.587
315.485
315.515
315.47
315.664
315.811
297.266
299.296
299.1
298.964
298.949
298.967
299.159
299.355
280.522
282.617
282.435
282.235
282.219
282.229
282.523
280.409
263.239
263.135
262.999
262.943
262.916
262.962
263.073
263.199
245.408
245.41
245.399
245.373
245.372
245.388
245.41
245.42
227.194
227.265
227.289
227.287
227.286
227.291
227.282
227.243
507.777
536.405
536.247
536.155
536.164
536.246
536.353
508.558
484.726
557.548
558.751
558.399
558.058
558.695
558.026
484.532
448.855
539.69
540.957
540.611
540.295
540.908
540.258
554.436
444.427
524.465
525.847
525.472
525.149
525.792
525.119
529.986
438.139
508.213
509.767
509.422
509.131
509.723
508.95
513.651
425.985
488.372
490.366
490.689
491.225
490.364
489.163
493.457
408.488
465.266
467.711
468.196
469.085
467.619
466.293
468.641
396.894
439.428
441.442
443.029
444.148
441.812
440.657
441.29
384.453
410.957
411.656
414.631
415.313
412.907
411.578
412.987
374.279
393.61
392.799
393.148
393.182
393.117
392.91
395.745
364.231
377.89
377.18
377.198
377.205
377.187
377.276
379.94
353.66
361.512
361.514
361.525
361.525
361.521
361.445
363.814
342.309
345.853
345.795
345.833
345.84
345.817
345.741
348.164
327.538
329.906
329.851
329.873
329.877
329.866
329.815
332.308
311.432
313.705
313.612
313.571
313.553
313.592
313.633
316.274
295.035
297.283
297.196
297.181
297.18
297.188
297.217
299.973
278.195
280.577
280.544
280.538
280.537
280.543
280.553
283.363
260.888
263.436
263.434
263.437
263.438
263.439
263.433
266.346
243.006
245.689
245.696
245.699
245.702
245.698
245.694
248.473
222.121
227.301
227.328
227.335
227.335
227.334
227.312
222.121
511.713
499.409
499.207
512.566
511.652
499.882
499.202
511.71
499.219
499.211
511.601
510.86
499.148
498.895
511.731
499.219
499.226
510.677
510.365
498.751
498.36
511.716
499.229
499.216
510.366
510.657
498.365
498.754
511.724
499.216
499.221
510.848
511.601
498.904
499.154
512.046
499.211
499.416
511.655
512.568
499.211
499.883
494.893
481.586
481.448
495.574
494.914
481.825
481.564
494.901
481.471
481.481
494.862
494.661
481.538
481.427
494.919
481.495
481.513
494.526
494.133
481.318
480.948
494.907
481.515
481.492
494.137
494.533
480.947
481.338
494.91
481.485
481.473
494.675
494.871
481.449
481.557
495.104
481.451
481.592
494.926
495.575
481.585
481.828
476.761
462.14
462.125
477.137
476.942
462.299
462.395
476.811
462.156
462.185
476.937
476.85
462.428
462.513
476.86
462.207
462.255
476.75
476.393
462.439
462.104
476.825
462.256
462.205
476.391
476.774
462.095
462.475
476.793
462.188
462.159
476.876
476.96
462.549
462.461
476.885
462.128
462.145
476.966
477.139
462.428
462.3
457.044
441.035
441.122
457.229
457.343
441.222
441.48
457.106
441.157
441.173
457.384
457.527
441.556
441.8
457.183
441.202
441.263
457.473
457.13
441.792
441.455
457.129
441.264
441.201
457.12
457.513
441.448
441.826
457.077
441.177
441.159
457.565
457.418
441.834
441.585
457.056
441.124
441.038
457.377
457.23
441.51
441.221
435.57
418.127
418.143
435.626
435.936
418.087
418.474
435.616
418.172
418.148
436.019
436.268
418.524
418.678
435.703
418.162
418.185
436.257
435.893
418.611
418.195
435.643
418.186
418.157
435.888
436.283
418.192
418.581
435.608
418.147
418.168
436.294
436.042
418.653
418.518
435.522
418.14
418.125
435.962
435.623
418.474
418.078
412.077
399.01
399.043
411.974
413.934
398.898
397.888
412.077
399.06
399.045
413.945
414.146
397.888
397.848
412.094
399.04
399.029
414.089
413.498
397.768
397.167
412.08
399.029
399.036
413.506
414.039
397.157
397.721
412.099
399.044
399.058
414.097
413.934
397.799
397.869
412.062
399.041
399.009
413.928
411.963
397.873
398.896
395.112
383.304
383.357
394.951
395.897
383.171
382.138
395.124
383.394
383.424
395.892
395.813
382.122
381.822
395.105
383.42
383.4
395.729
395.115
381.717
381.114
395.115
383.4
383.418
395.109
395.69
381.119
381.752
395.135
383.425
383.393
395.773
395.874
381.848
382.12
395.08
383.357
383.3
395.885
394.95
382.135
383.164
379.441
367.553
367.679
379.268
380.196
367.621
366.66
379.541
367.769
367.943
380.178
379.854
366.699
365.756
379.502
367.939
367.871
379.758
379.153
365.692
364.979
379.533
367.871
367.938
379.158
379.798
364.981
365.714
379.487
367.945
367.77
379.884
380.178
365.775
366.698
379.367
367.685
367.578
380.194
379.262
366.659
367.624
363.759
351.906
352.046
363.764
364.748
352.12
351.509
364.079
352.126
352.394
364.783
364.829
351.586
351.532
364.05
352.449
352.63
364.766
364.046
351.53
351.23
364.086
352.612
352.496
364.048
364.781
351.231
351.521
363.851
352.402
352.125
364.843
364.779
351.534
351.73
363.668
352.051
351.914
364.746
363.769
351.664
352.125
348.153
336.115
336.363
348.214
349.639
336.397
335.997
348.494
336.446
336.709
349.716
350.651
336.114
337.009
348.751
336.805
336.969
350.644
350.441
337.132
338.376
348.594
336.976
336.792
350.443
350.64
338.378
337.138
348.228
336.705
336.445
350.647
349.883
337.009
336.112
347.984
336.361
336.113
349.796
348.213
335.996
336.395
332.357
319.869
319.903
332.36
333.945
319.925
318.952
332.626
319.868
319.744
334.049
335.991
318.965
317.84
332.869
319.747
319.807
336.115
337.278
317.797
317.29
332.658
319.816
319.749
337.28
336.115
317.292
317.794
332.433
319.744
319.867
335.989
334.047
317.836
318.961
332.104
319.902
319.868
333.943
332.358
318.949
319.923
315.675
303.393
303.179
315.798
316.794
303.251
301.761
315.425
303.124
302.981
316.786
316.684
301.699
300.921
315.424
302.949
302.885
316.645
316.108
300.836
300.314
315.411
302.885
302.948
316.11
316.642
300.314
300.834
315.605
302.981
303.123
316.68
316.782
300.92
301.707
315.785
303.178
303.39
316.791
315.796
301.775
303.25
299.057
286.756
286.547
299.082
299.705
286.612
285.128
298.838
286.478
286.223
299.633
298.85
285.067
284.703
298.737
286.166
286.099
298.771
298.303
284.66
284.346
298.798
286.097
286.166
298.303
298.77
284.346
284.66
298.998
286.223
286.477
298.849
299.638
284.703
285.066
299.219
286.547
286.756
299.716
299.083
285.127
286.612
282.349
269.72
269.544
282.42
282.039
269.71
269.459
281.99
269.482
269.311
281.934
281.644
269.377
269.133
281.902
269.272
269.227
281.542
281.314
269.021
268.844
281.942
269.22
269.272
281.314
281.541
268.844
269.021
282.274
269.311
269.481
281.644
281.934
269.133
269.377
282.561
269.543
269.72
282.039
282.42
269.459
269.71
265.238
252.189
252.143
265.407
265.187
252.27
252.086
265.027
252.128
252.059
265.11
264.864
252.023
251.926
264.942
252.028
251.991
264.771
264.666
251.912
251.888
264.983
251.991
252.028
264.665
264.771
251.888
251.912
265.183
252.059
252.128
264.863
265.11
251.926
252.023
265.387
252.143
252.189
265.187
265.407
252.086
252.27
247.74
236.321
236.309
247.786
247.631
236.299
236.264
247.661
236.29
236.262
247.596
247.55
236.239
236.228
247.606
236.245
236.239
247.542
247.526
236.214
236.208
247.637
236.239
236.245
247.526
247.542
236.208
236.214
247.725
236.262
236.29
247.55
247.596
236.228
236.239
247.766
236.309
236.321
247.631
247.786
236.264
236.299
511.659
499.665
499.203
512.171
511.491
499.582
499.019
509.941
499.149
498.487
511.26
501.93
498.781
490.382
506.927
497.872
495.364
301.173
186.192
281.716
161.647
509.147
495.393
497.9
190.843
264.829
164.78
240.557
511.599
498.549
499.156
492.7
511.262
478.601
498.793
512.429
499.215
499.664
511.497
512.17
499.038
499.58
494.916
481.769
481.604
495.285
494.725
481.737
481.415
494.352
481.582
481.327
494.488
486.68
481.187
477.464
491.282
480.853
478.505
276.002
153.808
257.728
131.319
493.815
478.523
480.894
156.433
233.299
132.574
211.363
494.879
481.371
481.604
473.985
494.504
461.588
481.224
495.356
481.631
481.77
494.75
495.282
481.46
481.734
476.995
462.359
462.495
477.088
476.814
462.366
462.371
476.813
462.528
462.608
476.598
474.899
462.206
469.136
474.103
462.237
460.51
251.824
124.614
235.759
106.682
476.408
460.553
462.3
125.498
204.412
106.677
184.616
477.016
462.66
462.573
458.383
476.644
452.429
462.284
477.114
462.54
462.36
476.866
477.085
462.446
462.363
457.456
441.308
441.617
457.311
457.356
441.323
441.579
457.658
441.711
442.025
457.214
468.338
441.514
470.254
455.882
441.724
441.93
232.096
101.701
231.568
89.5348
457.378
442.319
441.793
101.473
179.236
88.7831
169.24
457.552
442.07
441.765
452.823
457.301
464.501
441.606
457.299
441.666
441.308
457.437
457.308
441.662
441.32
436.067
418.17
418.534
435.761
436.032
418.243
418.408
436.488
418.583
418.682
435.978
469.153
418.218
434.171
437.116
418.267
416.472
237.764
86.5101
309.838
80.1576
436.243
416.553
418.224
85.6193
169.513
79.085
199.64
436.217
418.628
418.589
471.115
436.056
465.31
418.185
435.723
418.541
418.16
436.105
435.756
418.397
418.226
413.961
398.859
397.842
412.097
413.745
398.873
397.731
414.105
397.838
397.579
413.656
433.969
397.628
387.92
411.238
397.414
395.973
519.606
75.8734
379.23
73.0598
413.97
395.994
397.331
75.4419
373.628
77.0368
378.713
413.984
397.498
397.816
521.961
413.594
387.187
397.567
412.02
397.82
398.856
413.699
412.08
397.679
398.868
395.849
383.126
382.071
394.888
395.723
383.054
381.895
395.534
382.056
381.506
395.617
385.975
381.78
372.468
393.953
381.317
379.994
377.645
72.53
365.344
64.7206
395.296
380.002
381.365
76.7696
377.712
65.5818
366.535
395.822
381.547
382.06
385.558
395.571
373.216
381.817
394.904
382.072
383.127
395.683
394.887
381.92
383.058
380.129
367.624
366.633
379.166
379.949
367.6
366.432
379.537
366.666
365.582
379.839
370.564
366.348
356.289
378.031
365.511
364.479
363.546
63.2455
353.27
47.3923
379.413
364.481
365.533
63.6437
364.708
46.6863
353.371
380.118
365.607
366.666
371.326
379.875
356.405
366.335
379.235
366.632
367.623
379.976
379.169
366.421
367.596
364.723
352.17
351.627
363.761
364.54
352.267
351.83
364.657
351.688
351.514
364.467
355.415
351.857
344.047
363.548
351.501
350.892
352.414
46.0765
341.188
21.6516
364.598
350.892
351.49
45.3962
352.411
21.8744
340.992
364.751
351.508
351.771
355.449
364.448
343.892
351.846
363.775
351.713
352.168
364.524
363.755
351.821
352.262
349.765
336.494
336.196
348.429
350.03
336.713
337.006
350.626
336.322
337.279
350.117
343.619
337.325
339.993
350.16
337.396
338.803
340.781
20.4378
339.502
24.8571
350.608
338.806
337.431
20.4865
340.652
24.9238
339.494
349.947
337.288
336.32
343.518
350.111
339.986
337.324
348.276
336.195
336.495
350.024
348.425
337.004
336.717
334.151
319.931
318.959
332.645
334.947
319.859
318.596
336.251
318.947
317.766
335.261
339.326
318.52
314.493
337.705
317.735
317.074
338.984
313.763
276.913
336.38
317.077
317.731
338.963
276.911
313.746
334.264
317.762
318.943
339.308
335.257
314.478
318.509
332.453
318.957
319.928
334.943
332.659
318.58
319.853
316.788
303.193
301.692
315.584
316.335
303.129
301.258
316.567
301.624
300.702
316.236
313.199
301.091
299.513
315.875
300.596
299.968
312.557
284.08
299.175
297.277
316.549
299.968
300.594
284.078
312.541
297.277
299.172
316.745
300.7
301.643
313.184
316.228
299.51
301.084
315.765
301.717
303.193
316.327
315.58
301.252
303.128
299.63
286.563
285.099
299.006
299.185
286.526
284.981
298.681
285.042
284.651
299.047
297.693
284.913
284.244
298.023
284.603
284.221
297.392
295.932
284.118
283.734
298.585
284.221
284.602
295.932
297.389
283.734
284.117
299.561
284.651
285.042
297.69
299.044
284.243
284.912
299.04
285.098
286.566
299.182
299.01
284.98
286.527
281.995
269.714
269.448
282.352
281.92
269.726
269.42
281.543
269.362
269.05
281.791
281.263
269.296
268.914
281.135
268.948
268.782
281.085
280.808
268.829
268.673
281.422
268.782
268.948
280.808
281.084
268.673
268.829
281.884
269.05
269.362
281.263
281.79
268.914
269.295
282.383
269.448
269.714
281.919
282.352
269.42
269.726
265.185
252.28
252.059
265.451
265.156
252.308
252.013
264.8
251.998
251.896
265.029
264.709
251.95
251.858
264.617
251.885
251.868
264.632
264.535
251.849
251.832
264.718
251.868
251.885
264.535
264.632
251.832
251.848
265.097
251.896
251.998
264.709
265.029
251.858
251.95
265.424
252.059
252.28
265.156
265.451
252.013
252.308
247.603
236.267
236.235
247.797
247.567
236.26
236.221
247.531
236.215
236.203
247.541
247.503
236.204
236.194
247.511
236.195
236.191
247.496
247.483
236.186
236.183
247.523
236.191
236.195
247.483
247.495
236.183
236.186
247.579
236.203
236.215
247.503
247.541
236.194
236.204
247.779
236.235
236.267
247.567
247.797
236.221
236.26
511.481
499.582
499.017
512.431
511.673
499.665
499.22
501.385
498.778
489.96
511.618
510.147
499.171
498.592
187.712
282.243
161.662
509.286
507.02
497.978
495.598
263.025
162.824
238.231
507.396
509.391
496.253
498.043
511.245
477.56
498.788
510.027
511.615
498.583
499.173
512.162
499.036
499.579
511.671
512.453
499.225
499.667
494.727
481.743
481.432
495.357
494.933
481.772
481.619
486.452
481.21
477.311
494.891
494.444
481.601
481.403
153.347
254.096
129.768
493.885
491.568
480.949
479.007
230.648
130.436
207.61
492.436
493.944
481.241
481.006
494.505
459.404
481.245
494.453
494.896
481.442
481.621
495.283
481.476
481.741
494.942
495.359
481.641
481.774
476.835
462.375
462.398
477.116
477.009
462.36
462.507
474.688
462.245
469.596
477.006
476.887
462.544
462.676
122.84
229.094
104.609
476.459
474.712
462.331
461.737
200.354
104.643
179.844
477.69
476.519
468.194
462.403
476.671
449.317
462.32
476.933
477.031
462.742
462.589
477.093
462.471
462.372
477.036
477.118
462.549
462.363
457.382
441.326
441.592
457.298
457.468
441.305
441.627
469.616
441.534
474.857
457.518
457.723
441.722
442.073
99.6272
222.347
87.6738
457.401
457.457
441.787
445.381
174.322
87.1654
164.217
465.397
457.476
458.488
441.855
457.336
462.104
441.616
457.796
457.569
442.146
441.779
457.316
441.67
441.324
457.514
457.302
441.677
441.308
436.037
418.24
418.397
435.721
436.075
418.156
418.53
474.177
418.198
437.276
436.177
436.525
418.576
418.665
84.7468
300.415
78.4624
436.228
441.299
418.227
418.436
164.43
77.5764
193.577
455.835
436.282
428.716
418.129
436.055
469.712
418.151
436.587
436.228
418.63
418.582
435.758
418.38
418.224
436.122
435.722
418.539
418.142
413.734
398.871
397.725
412.02
413.953
398.853
397.823
438.794
397.622
387.863
413.98
414.086
397.82
397.526
75.5815
379.099
72.4749
414.025
410.186
397.356
395.877
359.632
76.1426
378.574
409.182
413.906
395.898
397.24
413.573
387.123
397.563
414
413.966
397.434
397.8
412.078
397.676
398.868
413.944
412.005
397.81
398.85
395.718
383.053
381.892
394.9
395.83
383.122
382.058
385.926
381.778
372.45
395.823
395.479
382.041
381.463
71.9977
365.318
64.8024
395.302
393.85
381.271
379.913
377.619
65.6342
366.52
393.852
395.207
379.92
381.308
395.568
373.2
381.816
395.402
395.807
381.5
382.047
394.887
381.92
383.058
395.819
394.899
382.063
383.124
379.946
367.6
366.43
379.231
380.117
367.624
366.63
370.55
366.346
356.287
380.1
379.497
366.663
365.564
63.3848
353.267
47.3043
379.315
377.961
365.5
364.486
364.698
46.6092
353.373
377.968
379.36
364.485
365.51
379.875
356.404
366.337
379.54
380.106
365.583
366.655
379.17
366.422
367.597
380.123
379.233
366.625
367.621
364.538
352.267
351.829
363.777
364.718
352.171
351.713
355.413
351.857
344.038
364.75
364.643
351.77
351.407
45.9617
341.181
21.5886
364.578
363.56
351.404
350.878
352.413
21.8111
340.985
363.559
364.58
350.878
351.502
364.449
343.884
351.848
364.654
364.744
351.52
351.678
363.756
351.822
352.262
364.714
363.773
351.62
352.167
350.029
336.72
337.007
348.278
349.862
336.498
336.195
343.61
337.327
339.972
349.945
350.586
336.317
337.273
20.4207
339.496
24.8082
350.575
350.145
337.386
338.801
340.645
24.8758
339.485
350.145
350.63
338.799
337.426
350.112
339.978
337.324
350.644
349.82
337.28
336.315
348.425
337.005
336.718
349.758
348.275
336.192
336.495
334.947
319.857
318.587
332.456
334.15
319.931
318.959
339.305
318.517
314.484
334.262
336.246
318.944
317.772
313.761
276.913
336.364
337.704
317.734
317.078
338.955
276.911
313.742
337.701
336.369
317.076
317.72
335.257
314.474
318.513
336.242
334.259
317.745
318.939
332.658
318.589
319.855
334.147
332.453
318.955
319.928
316.334
303.13
301.255
315.768
316.787
303.195
301.718
313.198
301.088
299.505
316.745
316.566
301.641
300.704
284.079
299.167
297.267
316.549
315.879
300.597
300.102
312.537
297.267
299.164
315.877
316.537
300.102
300.59
316.229
299.501
301.089
316.541
316.741
300.695
301.618
315.581
301.256
303.126
316.783
315.765
301.689
303.192
299.185
286.528
284.981
299.042
299.651
286.567
285.097
297.682
284.914
284.236
299.559
298.677
285.036
284.647
295.924
284.111
283.724
298.584
298.16
284.6
284.235
297.378
283.724
284.11
298.16
298.582
284.235
284.599
299.046
284.235
284.913
298.674
299.54
284.646
285.035
299.004
284.98
286.525
299.628
299.035
285.096
286.563
281.919
269.726
269.42
282.384
281.994
269.715
269.448
281.264
269.296
268.914
281.881
281.55
269.362
269.054
280.796
268.829
268.673
281.444
281.147
268.959
268.787
281.08
268.673
268.829
281.147
281.443
268.787
268.958
281.79
268.914
269.295
281.55
281.88
269.054
269.362
282.351
269.42
269.726
281.993
282.382
269.448
269.714
265.156
252.308
252.013
265.425
265.185
252.283
252.059
264.709
251.95
251.858
265.097
264.801
251.998
251.896
264.535
251.849
251.832
264.72
264.619
251.885
251.868
264.632
251.832
251.849
264.619
264.72
251.868
251.885
265.029
251.858
251.95
264.801
265.097
251.896
251.998
265.451
252.013
252.308
265.185
265.425
252.059
252.283
247.567
236.26
236.221
247.778
247.603
236.267
236.235
247.503
236.204
236.194
247.58
247.531
236.215
236.203
247.483
236.186
236.183
247.523
247.511
236.195
236.191
247.495
236.183
236.186
247.511
247.523
236.191
236.195
247.541
236.194
236.204
247.531
247.579
236.203
236.215
247.797
236.221
236.26
247.603
247.778
236.235
236.267
511.652
499.881
499.209
512.078
511.723
499.444
499.22
510.903
499.156
498.929
511.734
511.726
499.233
499.228
510.303
498.766
498.356
511.731
511.74
499.234
499.24
510.724
498.368
498.799
511.739
511.732
499.239
499.235
511.597
498.934
499.16
511.727
511.734
499.228
499.233
512.561
499.215
499.881
511.725
512.065
499.221
499.419
494.924
481.832
481.585
495.131
494.904
481.618
481.455
494.7
481.563
481.489
494.92
494.918
481.479
481.494
494.148
481.386
481.02
494.924
494.932
481.504
481.52
494.582
481.027
481.413
494.931
494.926
481.519
481.506
494.881
481.51
481.58
494.918
494.922
481.494
481.483
495.575
481.603
481.834
494.907
495.107
481.46
481.594
476.965
462.307
462.424
476.91
476.767
462.158
462.126
476.92
462.464
462.599
476.797
476.821
462.159
462.187
476.485
462.539
462.248
476.834
476.864
462.205
462.247
476.859
462.277
462.577
476.862
476.836
462.245
462.208
476.983
462.632
462.471
476.821
476.802
462.188
462.163
477.147
462.438
462.305
476.773
476.887
462.132
462.17
457.372
441.221
441.503
457.071
457.042
441.03
441.115
457.613
441.581
441.87
457.073
457.102
441.148
441.158
457.287
441.877
441.626
457.122
457.168
441.181
441.232
457.614
441.726
441.9
457.167
457.125
441.231
441.184
457.426
441.9
441.588
457.103
457.077
441.159
441.151
457.237
441.517
441.218
457.048
457.072
441.119
441.032
435.958
418.072
418.474
435.516
435.562
418.112
418.13
436.327
418.521
418.696
435.596
435.598
418.156
418.125
436.059
418.637
418.293
435.62
435.667
418.132
418.141
436.342
418.303
418.595
435.666
435.622
418.14
418.129
436.042
418.672
418.486
435.599
435.597
418.12
418.153
435.62
418.462
418.063
435.564
435.513
418.129
418.12
413.931
398.889
397.867
412.031
412.063
398.944
399.031
414.153
397.868
397.81
412.086
412.053
399.047
399.03
413.467
397.728
397.075
412.056
412.05
399.021
399.003
414.016
397.056
397.633
412.048
412.052
399.002
399.02
413.905
397.739
397.857
412.047
412.084
399.028
399.048
411.955
397.862
398.891
412.062
412.056
399.034
399.005
395.878
383.159
382.117
395.005
395.101
383.228
383.306
395.773
382.101
381.787
395.121
395.109
383.357
383.395
395.021
381.68
381.048
395.1
395.081
383.396
383.381
395.605
381.051
381.699
395.08
395.1
383.38
383.407
395.864
381.807
382.114
395.108
395.126
383.413
383.387
394.946
382.131
383.169
395.104
395.077
383.352
383.302
380.174
367.625
366.657
379.31
379.371
367.603
367.688
379.821
366.694
365.746
379.43
379.49
367.728
367.845
379.092
365.68
364.99
379.493
379.485
367.854
367.857
379.748
364.981
365.692
379.485
379.523
367.857
367.93
380.172
365.756
366.692
379.532
379.481
367.937
367.772
379.267
366.655
367.619
379.438
379.369
367.704
367.566
364.746
352.128
351.665
363.709
363.825
351.92
352.109
364.818
351.73
351.465
363.857
364.003
352.165
352.383
364.067
351.465
351.215
364.02
364.037
352.438
352.627
364.763
351.216
351.513
364.037
364.078
352.626
352.44
364.775
351.519
351.582
364.072
363.863
352.387
352.13
363.762
351.509
352.121
363.808
363.639
352.059
351.91
349.796
336.398
335.996
347.987
348.167
336.116
336.362
350.628
336.111
337.004
348.237
348.49
336.445
336.706
350.427
337.125
338.369
348.552