/*--------------------------------*- C++ -*----------------------------------*\
| =========                 |                                                 |
| \\      /  F ield         | OpenFOAM: The Open Source CFD Toolbox           |
|  \\    /   O peration     | Version:  2206                                  |
|   \\  /    A nd           | Website:  www.openfoam.com                      |
|    \\/     M anipulation  |                                                 |
\*---------------------------------------------------------------------------*/
FoamFile
{
    version     2.0;
    format      ascii;
    arch        "LSB;label=32;scalar=64";
    class       volScalarField;
    location    "600";
    object      yPlus;
}
// * * * * * * * * * * * * * * * * * * * * * * * * * * * * * * * * * * * * * //

dimensions      [0 0 0 0 0 0 0];

internalField   uniform 0;

boundaryField
{
    movingWall
    {
        type            calculated;
        value           uniform 0;
    }
    front
    {
        type            calculated;
        value           uniform 0;
    }
    back
    {
        type            calculated;
        value           uniform 0;
    }
    sphere_1m
    {
        type            calculated;
        value           nonuniform List<scalar> 
336
(
456.545
452.248
459.488
126.74
1161.91
130.288
1165.65
126.396
1161.83
130.689
1165.71
138.614
3376.75
1485.29
133.627
3377.47
578.081
3304.16
138.794
3376.62
577.822
3303.33
133.216
3377.61
1492.84
577.99
3304.29
577.719
3303.44
896.714
716.497
894.488
708.892
717.758
898.909
3427.51
3379.42
3290.96
3430.18
3381.21
3293.27
3427.22
3379.58
3290.19
3430.51
3381.06
3294.05
585.895
1240.25
933.813
971.257
964.456
584.6
1188.69
932.454
1241.31
585.887
1188.83
934.925
1240.79
971.743
584.48
1240.88
931.452
718.78
556.783
545.203
734.62
3484.45
2521.89
2699.09
1041.95
1124.73
2599.45
3500.01
519.018
1216.26
1154.58
555.746
545.055
733.691
3485.86
2526.5
2703.73
1049.85
1130.8
2604.2
3303.55
3502.35
3374.35
3073.45
2689.55
2678.02
3190.65
1216.51
557.448
545.939
735.096
3484.17
2521.11
2817.12
2698.21
1040.85
2597.98
1123.33
3300.78
3499.75
2473.52
2689.62
3073.24
2677.46
1153.92
555.102
544.289
733.187
2527.34
1048.03
2704.62
1050.94
2605.68
1132.22
3502.65
3374.36
3073.69
2689.75
2473.59
3073.27
2689.55
455.287
587.584
586.777
587.699
587.059
1751.1
3408.46
3069.46
912.38
1754.35
1491.91
3408.46
3069.62
910.993
1750.23
1484.54
3408.39
3069.46
910.91
1755.18
3408.62
3069.82
911.228
2630.09
1036.92
710.32
896.83
1188.58
1038.86
1035.75
1039.85
1188.39
1868.79
2473.71
1868.38
1186.01
1869.06
2473.95
1187.19
1494.7
1868.62
1494.46
702.934
464.802
1124.88
965.015
1216.46
1043.47
1157.05
1258.42
1118.06
1171.05
695.309
523.543
498.156
701.394
466.862
1041.72
717.753
1259.11
1116.7
1170.11
1127.02
523.853
690.688
491.832
703.382
465.163
1044.24
1259.03
1119.41
1172.21
1124.55
1157.75
695.47
523.678
497.515
700.912
466.656
1127.37
1216.24
1040.88
1258.56
1115.51
1169.01
524.126
690.612
492.404
520.436
820.973
1215.21
2817.66
2870.15
2745.28
3316.06
3415.75
3370.27
1219.29
2538.8
2718.51
3373.11
3372.33
3190.25
3334.81
1040.04
3301.02
3400.16
3143.42
817.795
2872.39
2821.58
1215.37
2746.04
3416
3315.93
3370.53
3372.7
3335.43
1218.76
2537.78
2718.62
1046.73
3401.81
3145.02
1494.51
1186.55
2263.09
2533.83
2145.89
2148.5
2630.39
1731.23
3016.96
3163.81
3193.92
2958.19
718.99
520.755
821.268
1214.23
2869.58
2744.76
3315.77
3415.7
3370.03
1218.24
2538.09
2717.9
3372.2
3190.14
3334.57
1038.88
3143.66
3400.29
3373.09
1494.51
2263.03
2145.22
2532.98
2147.67
2629.45
1730.49
3016.17
3192.65
2957.15
3162.71
717.35
518.569
817.54
1216.02
3486.15
2822.2
2872.93
2746.4
3316.17
3416.21
3370.76
1219.16
2538.24
2718.96
3372.93
3190.86
3335.69
3401.66
3303.86
3144.78
2533.58
2145.76
2678.08
2148.16
1731.6
2263.11
3016.96
3163.76
3193.79
2957.98
1186.66
2532.75
2677.5
2145.15
2147.32
2629.14
1730.85
2263.05
3016.16
3162.67
3192.55
2956.98
)
;
    }
}


// ************************************************************************* //
