/*--------------------------------*- C++ -*----------------------------------*\
| =========                 |                                                 |
| \\      /  F ield         | OpenFOAM: The Open Source CFD Toolbox           |
|  \\    /   O peration     | Version:  v1906                                 |
|   \\  /    A nd           | Web:      www.OpenFOAM.com                      |
|    \\/     M anipulation  |                                                 |
\*---------------------------------------------------------------------------*/
FoamFile
{
    version     2.0;
    format      ascii;
    class       volScalarField;
    location    "1000";
    object      omega;
}
// * * * * * * * * * * * * * * * * * * * * * * * * * * * * * * * * * * * * * //

dimensions      [0 0 -1 0 0 0 0];


internalField   nonuniform List<scalar> 
270674
(
47.7645
35.117
36.4886
36.5128
36.5125
36.4881
35.125
47.9075
47.4013
35.1959
37.3628
37.392
37.3918
37.3619
35.207
47.6676
47.0098
35.2522
38.1191
38.1563
38.1561
38.1178
35.2659
47.4047
46.4232
35.3345
39.1649
39.2184
39.2182
39.1631
35.3516
47.0199
45.7003
35.4923
68.6066
68.6392
68.6545
68.6242
35.514
46.597
44.7364
35.7498
66.1377
66.255
66.3118
66.1742
35.7822
46.0208
42.8723
35.782
66.1139
66.2542
66.3263
66.1825
35.8229
44.7766
40.8746
35.8218
66.0474
66.3172
66.4379
66.1614
35.8781
43.5801
38.6524
35.5529
65.6457
65.9964
66.1679
65.7848
35.6458
42.3835
40.398
35.3742
64.881
65.3132
65.4966
65.0929
35.5442
45.1562
41.5239
35.4396
63.6806
64.0428
64.2203
63.846
35.6407
46.9008
43.2875
35.8121
61.6106
61.7825
61.9303
61.5834
35.6966
45.436
44.6003
36.0392
58.0482
58.0383
58.1412
57.9319
35.9559
44.2889
42.949
36.7231
52.3674
52.2388
52.3162
52.1283
36.7355
43.0084
43.5289
39.3186
44.1126
44.4488
44.458
44.0779
39.3162
43.5175
52.3926
47.1992
46.1706
46.5991
46.602
46.0826
47.1997
52.3947
60.2627
58.3107
55.5403
56.1556
56.1566
55.4022
58.3106
60.2623
77.0174
77.3857
70.3568
71.2916
71.2885
70.1339
77.3857
77.0174
114.059
114.083
97.3894
98.2706
98.2506
97.0223
114.083
114.059
190.343
190.373
191.83
158.434
158.385
191.83
190.373
190.343
35.2198
11.7609
12.5918
12.6179
12.6181
12.5914
11.7586
35.2119
35.2814
12.8464
13.6493
13.2029
13.2778
13.6489
12.8431
35.2692
35.3241
13.5466
13.9644
13.9846
14.0271
13.9805
13.5425
35.3078
35.398
14.4354
14.9001
14.8847
14.9006
14.9024
14.4303
35.3754
35.5815
14.4167
15.9116
15.9002
15.8952
15.9081
14.9373
35.5494
35.9027
15.4639
16.9067
16.8934
16.8881
16.9025
15.9107
35.8526
35.8499
16.4841
18.039
18.0231
18.0164
18.0345
16.9309
35.7912
35.8711
17.8949
19.3537
19.3478
19.3418
19.3535
18.1968
35.7887
35.7881
19.7279
20.9137
20.8985
20.8913
20.9063
20.1505
35.6762
35.9394
22.0986
22.7479
22.7164
22.7079
22.726
22.3287
35.7742
35.9025
24.2489
24.8723
24.8593
24.8576
24.8594
24.3617
35.7011
35.9675
27.0266
27.4163
27.4342
27.4409
27.4243
27.0655
35.9236
36.1611
30.3511
30.553
30.5829
30.5945
30.567
30.3343
36.1613
36.902
34.3183
34.4724
34.5208
34.5306
34.4984
34.2594
36.9018
39.2089
39.536
39.5603
39.5979
39.6058
39.5826
39.5459
39.2088
47.1313
46.3888
46.4157
46.4474
46.452
46.4349
46.3981
47.1313
58.25
56.1918
56.2127
56.2326
56.233
56.2248
56.1976
58.25
77.3397
71.4028
71.4598
71.4817
71.4451
71.4773
71.43
77.3397
113.987
98.5102
98.6886
98.7511
98.6895
98.7568
98.5932
113.987
190.344
159.021
159.532
159.442
159.413
159.547
159.343
190.344
36.5119
12.5998
12.838
12.8566
12.8818
12.838
12.5974
36.5318
37.3532
13.6761
13.6212
13.6705
13.6962
13.6798
13.6732
37.3793
38.098
14.3681
14.3296
14.4064
14.4344
14.3726
14.3648
38.1184
39.185
14.8973
15.1434
15.2184
15.2489
15.1789
15.1298
39.1568
69.0387
15.931
16.0447
16.127
16.1605
16.0845
16.0259
11.6035
66.1022
16.9139
17.0605
16.997
17.0326
17.1048
17.0369
15.9002
65.9529
18.0487
18.2148
18.1436
18.1801
18.2644
18.1895
17.1689
65.8433
19.3741
19.5361
19.4536
19.497
19.5918
19.5085
18.4855
65.6125
20.9205
21.057
20.9576
21.008
21.1198
21.0268
19.9172
64.6964
22.7266
22.8365
22.7128
22.7695
22.9054
22.8049
21.8728
63.3612
24.8514
24.9488
24.7968
24.8625
24.7315
24.915
24.0137
61.1067
27.4076
27.497
27.3046
27.3818
27.2266
27.4597
26.5913
57.4054
30.5482
30.6211
30.3717
30.4561
30.276
30.5803
29.681
51.6393
34.4732
34.5428
34.1954
34.2848
34.0791
34.5014
33.5235
43.6572
39.5526
39.6157
39.1091
39.1973
38.9681
39.5782
38.3527
45.5021
46.4125
46.4702
45.6847
45.7704
45.5031
46.4368
44.7736
54.5957
56.2086
56.2909
55.0054
55.0921
54.7499
56.2455
53.8548
69.3954
71.4301
71.6012
69.3402
69.4092
69.0031
71.5043
68.3403
115.043
98.5627
98.9435
93.9301
93.9908
99.008
98.7489
115.043
190.269
159.308
159.997
159.4
160.311
159.745
159.879
190.269
36.4573
12.6258
12.8262
12.9914
14.1196
12.8924
12.6258
36.4576
37.3267
13.6803
13.6361
13.8095
15.0847
13.6959
13.6803
37.3272
38.0937
13.9857
14.3783
14.562
15.9824
14.4346
14.3364
38.094
39.2097
14.9141
15.1873
15.3908
15.8015
15.2487
15.1365
39.209
69.106
15.9237
16.0928
16.1164
16.9056
16.0494
16.0443
11.7217
66.0217
16.8828
16.9593
17.1376
18.021
17.0609
17.0555
15.9959
65.8839
18.0268
18.1005
18.2893
18.7235
18.2051
18.2132
17.2634
65.6993
19.3638
19.4066
19.6163
20.1416
19.5227
19.5353
18.5938
65.2469
20.9167
20.9058
21.1438
21.7612
21.0367
21.0582
20.1028
64.1805
22.7238
22.6551
22.9306
23.6767
22.8054
22.8395
21.8775
62.2066
24.8609
24.7286
25.0415
25.9955
24.8996
24.9533
24.0689
58.9565
27.4328
27.2194
27.3417
28.3598
27.4131
27.4987
26.6478
53.7148
30.5714
30.2669
30.3809
31.4926
30.2842
30.6215
29.7633
45.8386
34.4968
34.0653
34.1345
35.034
34.0223
34.5392
33.5802
37.688
39.5731
38.9506
38.9214
39.7833
38.7958
39.6086
38.3972
45.2805
46.4316
45.5014
45.287
45.928
45.1453
46.4634
44.8302
54.6471
56.2215
54.764
54.3477
54.4095
54.877
56.2656
53.9269
69.4846
71.4512
68.9717
69.4975
68.5454
69.0629
71.5433
68.4425
115.056
98.5989
99.0735
94.1328
94.9053
93.6439
98.8265
115.056
190.285
159.435
160.181
160.516
146.346
159.883
160.026
190.285
36.393
12.6847
12.8612
13.0497
19.3958
12.8609
12.6848
36.3758
37.2814
13.7224
13.6811
13.8078
21.2892
13.7192
13.7226
37.2597
38.0522
14.0733
14.3706
14.4957
23.1695
14.4115
14.3327
38.038
39.1327
14.9592
15.1771
15.1773
50.2478
15.224
15.1352
39.1718
69.107
15.9432
16.0816
16.0845
59.2537
16.0314
16.0406
11.7915
65.9813
16.9006
16.9432
17.1022
141.854
17.04
17.0438
16.0263
65.7947
18.0478
18.0901
18.1513
18.1805
18.2058
17.3104
65.5888
19.3855
19.3974
19.4652
19.4981
19.5305
18.6436
65.0234
20.9319
20.8969
20.9723
21.0104
21.0551
20.1858
64.0015
22.7249
22.6479
22.7389
22.7799
22.8373
21.9619
62.0746
24.8677
24.7201
24.8254
24.8715
24.9515
24.1092
58.8327
27.4323
27.2065
27.3152
27.375
27.495
26.6746
53.6343
30.568
30.2439
30.3332
30.2327
30.6153
29.782
45.7978
34.495
34.0323
34.0597
33.9519
34.5307
33.6151
37.7151
39.5713
38.9087
38.8159
38.703
39.6031
38.4258
45.3152
46.4286
45.451
45.1557
52.6335
45.5164
46.4633
44.8674
54.6996
56.2191
54.7071
54.181
54.1567
54.7547
56.2688
53.983
69.5612
71.4429
71.7477
69.191
68.0846
68.8914
71.5414
68.5208
115.085
98.6194
99.0384
93.7601
93.9766
99.3842
98.8542
115.085
190.304
159.406
160.088
159.509
160.344
159.862
159.943
190.304
36.0022
12.6191
12.8105
12.8447
12.8448
12.8107
12.6192
36.0037
36.7109
13.6502
13.8375
13.6882
13.685
13.8378
13.6503
36.7127
37.3649
14.3134
14.3161
14.3751
14.38
14.3448
14.3135
37.3662
38.4267
14.8522
15.1311
15.1816
15.194
15.1581
15.072
38.4246
40.3064
15.8229
16.0325
16.0853
15.9936
16.0622
15.95
40.3098
68.7647
16.851
17.0388
16.9607
16.9956
17.0665
16.9395
12.7595
65.6722
17.9899
18.2
18.1032
18.1337
18.0911
18.088
17.1854
65.313
19.3111
19.5234
19.4149
19.4467
19.4012
19.3963
18.6582
64.66
20.8365
21.048
20.9149
20.9513
20.8866
20.901
20.1931
63.5895
22.6016
22.8313
22.6699
22.7129
22.6378
22.6603
21.9312
61.6696
24.7121
24.9458
24.7453
24.7957
24.7083
24.7431
23.9914
58.4243
27.2338
27.4888
27.2315
27.2875
27.1911
27.2471
26.5253
53.1256
30.3194
30.6094
30.2657
30.3245
30.2217
30.3164
29.5671
45.1925
34.1788
34.5274
34.0505
34.1093
34.0048
34.1655
33.2646
36.8715
39.1681
39.6125
38.9295
38.9807
38.8827
39.1431
37.9862
44.3
45.8843
46.4778
45.4805
45.5242
45.4408
45.8418
44.3963
58.5592
55.4391
56.3114
54.7424
54.7921
56.3455
55.3795
58.5592
77.2903
70.2425
71.596
71.7475
71.7646
71.6169
70.1605
77.2903
114.03
97.2456
98.846
98.8317
98.8362
98.8346
97.1222
114.03
190.412
192.1
159.794
159.234
159.133
159.528
192.1
190.412
34.8858
11.9472
12.5883
12.6454
12.6378
12.6041
12.0017
34.8252
34.9525
12.9604
13.6219
13.6699
13.6614
13.6403
13.0214
34.8665
35.0261
13.6143
14.2862
14.3289
14.3197
14.3063
13.6752
34.9312
35.2143
14.4519
15.05
15.0734
15.0815
15.0719
14.4956
35.1549
35.8194
15.377
15.9294
15.9551
15.9603
15.9505
15.379
35.6788
35.3788
15.9737
16.9313
16.9527
16.9585
16.9481
16.7837
35.3964
35.5164
17.0237
18.075
18.0994
18.1042
18.094
17.8246
35.5125
35.5922
18.3426
19.3812
19.4079
19.4129
19.4024
19.0984
35.595
35.7548
19.8594
20.8845
20.9135
20.9187
20.9074
20.5637
35.7436
35.8226
21.7431
22.6425
22.6755
22.6806
22.6684
22.2814
35.8088
35.9143
23.6516
24.7242
24.7613
24.7669
24.7537
24.3033
35.8954
35.9985
26.0303
27.2271
27.2682
27.2741
27.261
26.7295
35.9783
36.1373
29.4142
30.2967
30.3404
30.3463
30.3347
29.6922
36.1321
36.9017
33.3485
34.1506
34.1946
34.2017
34.1919
33.3894
36.9252
39.2878
38.0897
39.1382
39.1867
39.1943
39.1867
38.1504
39.2834
47.2125
44.5407
45.8557
45.911
45.9152
45.9174
44.6184
47.2134
58.2988
58.6258
55.4013
55.4789
55.4878
55.492
58.6258
58.2986
77.3737
77.4401
70.1809
70.2846
70.2916
70.3144
77.4401
77.3737
114.06
114.298
97.1351
97.2918
97.3006
97.3492
114.298
114.06
190.361
190.61
192.088
192.114
192.114
192.088
190.61
190.361
46.4546
34.8031
36.0209
35.9992
36.0195
36.0581
34.781
46.4573
45.3656
34.787
36.7082
36.7288
36.7564
36.7554
34.764
45.4044
44.3435
34.784
37.3456
37.3811
37.4085
37.3798
34.7832
44.4874
43.1191
34.8545
38.3916
38.375
38.3774
38.3279
34.968
43.6619
42.508
35.1866
40.2995
39.9304
39.8011
39.7907
35.0951
42.3933
45.311
34.6059
12.6685
12.8684
12.8638
12.8996
34.6713
45.3334
47.4098
34.5586
17.0938
17.2418
17.2177
17.2507
34.593
47.3955
46.1087
34.7144
18.5547
18.7196
18.6934
18.7254
34.715
46.1078
45.15
35.0564
20.1554
20.2372
20.2152
20.2451
35.0756
45.1517
43.772
35.1562
21.934
22.0093
21.9915
22.0114
35.1596
43.769
41.6425
35.4189
23.982
24.1056
24.0934
24.0971
35.4269
41.6378
38.8924
35.6388
26.3659
26.6076
26.6025
26.5927
35.6487
38.8862
35.4961
35.9899
29.3435
29.6296
29.6284
29.6308
35.997
35.491
33.4804
36.9172
33.24
33.3432
33.3434
33.351
36.9121
33.4815
39.9415
39.2738
38.0563
38.0876
38.0876
38.1009
39.2747
39.9413
47.0749
47.2097
44.4945
44.5303
44.5286
44.552
47.2095
47.075
58.3027
58.2997
58.579
58.5667
58.5667
58.579
58.2998
58.3027
77.3333
77.3968
77.3471
77.3074
77.3073
77.3471
77.3968
77.3333
114.017
114.147
114.105
114.03
114.03
114.105
114.147
114.017
190.375
190.483
190.424
190.363
190.363
190.424
190.483
190.375
25.9966
27.0017
28.1812
24.8736
27.0314
25.0416
28.1805
27.0017
24.8736
27.0314
28.3604
29.9666
31.2816
27.3691
29.9825
27.3418
31.2824
29.9671
27.3692
29.9826
31.4915
33.6135
34.9012
30.3959
33.6204
30.3812
34.9048
33.6135
30.3959
33.6204
35.0303
38.2498
39.6134
34.1352
38.2336
34.1345
39.6194
38.25
34.1352
38.2336
39.7774
44.3761
45.7067
38.9032
44.3391
59.0753
38.9216
45.71
44.3764
38.9032
59.0947
44.3391
45.9249
53.0105
53.8083
45.2486
57.6191
52.9467
54.0397
45.2873
53.8096
53.0109
57.6308
45.2486
54.0397
52.9467
54.4083
66.1178
66.3198
54.2874
54.5342
65.1563
66.1092
54.3478
66.3207
66.1183
54.5342
54.2874
66.1092
65.1562
24.8615
26.6307
26.7051
24.9682
25.4492
26.8188
27.7028
24.7966
26.7062
26.6304
25.449
24.9682
27.7027
26.819
27.3807
29.5438
29.6251
27.4944
28.0498
29.9335
30.9006
27.3043
29.6264
29.5434
28.0496
27.4944
30.9004
29.9336
30.4549
33.1521
33.2382
30.3487
31.102
33.5831
34.5217
30.3713
33.2396
33.1515
31.1019
30.3487
34.5231
33.583
34.2829
37.7536
37.8407
34.105
34.7789
38.2263
39.1918
34.1948
37.8429
37.7529
34.7803
34.1049
39.1941
38.2264
39.1949
43.8344
43.9193
38.8984
39.5197
44.3624
45.2654
39.1083
43.9228
43.8333
39.5221
38.8982
45.2669
44.3624
45.7666
52.3246
52.4048
45.2756
45.7045
53.0128
53.5403
45.6836
52.4097
52.3223
45.7059
45.2755
53.5415
53.0127
23.678
24.4794
25.6833
22.7825
24.5924
22.9307
25.682
24.4794
22.7824
24.5923
24.8997
26.5506
26.741
24.7408
24.9222
26.564
26.9483
24.7286
26.7409
26.5506
24.9221
24.7408
26.9484
26.5642
27.4132
29.4446
29.8715
27.2329
27.2851
29.4531
29.8853
31.2146
27.9164
29.6726
28.9929
29.6196
27.2194
29.8719
29.4447
27.2852
27.2331
29.8853
29.4532
30.2839
33.0281
33.5035
30.276
30.2968
33.0372
33.5109
34.836
30.6945
33.0494
32.2006
32.6717
30.2669
33.5037
33.0276
30.2968
30.276
33.511
33.0372
34.0221
37.6024
38.1255
34.0715
34.0244
37.6056
38.1131
38.3368
34.2894
35.7881
34.2002
36.2088
36.0647
35.8469
39.68
34.383
37.1309
36.3131
37.2345
34.0651
38.1258
37.6024
34.0244
34.0715
38.1131
37.6055
38.7954
43.6576
44.2374
38.9531
38.7816
43.6613
44.2094
43.8135
39.0004
41.0712
38.9702
41.4868
41.1167
41.1073
45.3103
39.117
42.4621
41.6125
42.5278
38.9506
44.2379
43.6576
38.7817
38.9531
44.2094
43.6613
45.1448
52.1022
52.8406
45.505
45.1149
52.1123
52.7961
49.7301
45.2089
48.2711
45.3044
48.6041
47.0398
48.272
50.8097
45.3297
49.4614
48.7067
48.3113
45.5014
52.8412
52.1014
45.1149
45.505
52.7962
52.112
26.9788
24.819
24.7379
26.6479
26.8791
24.8253
26.9788
24.7379
24.8188
26.8791
26.648
29.9206
27.3175
27.2144
29.5409
29.8128
27.3152
29.9206
27.2144
27.3175
29.8128
29.5408
33.547
30.3639
30.2254
33.1237
33.4431
30.3331
33.547
30.2254
30.3638
33.4432
33.1238
38.1481
34.158
33.9616
37.6973
38.0855
34.0597
38.1481
33.9618
34.1582
38.0845
37.6975
44.2471
54.6986
39.0493
38.7588
43.7802
43.8343
38.8159
54.7117
44.247
38.758
39.0493
43.8348
43.7803
52.6267
52.8417
53.5802
45.6265
45.6827
52.2735
52.3376
45.1556
53.5803
52.8416
45.6839
45.6265
52.3381
52.2733
27.9562
27.3467
27.5704
26.5701
179.418
29.4087
27.9524
116.355
25.4046
26.6571
26.4838
27.1257
27.0953
26.0641
27.5744
26.1242
28.3847
26.4212
28.1532
27.8339
29.5681
26.6455
27.9518
27.3459
27.5705
26.5704
179.383
29.4054
27.9473
116.323
25.4048
26.6565
26.4841
28.1461
27.8341
29.5704
26.6457
27.1228
27.0954
26.0641
27.5746
26.1241
28.3843
26.4214
31.2213
27.9162
29.6729
28.9928
29.6237
31.4454
29.8687
30.4908
29.1049
32.5547
29.9329
27.4349
27.7464
28.4333
28.5715
28.5017
29.015
30.7132
28.0129
29.7835
29.3327
30.1304
30.0524
28.8055
30.6142
28.8743
31.6103
29.2053
30.8261
30.9872
32.6375
29.5309
31.4396
29.8685
30.4909
29.105
32.5546
30.7095
28.013
29.7858
29.3327
29.9333
27.4349
27.7466
28.4334
28.5713
28.5017
29.0154
30.8219
30.9874
32.636
29.531
30.1307
30.0524
28.8055
30.6145
28.8743
31.6102
29.2055
34.8479
30.6945
33.0467
32.2006
32.6715
33.9446
32.1524
34.0319
33.6813
32.3489
32.2213
35.9268
34.9809
33.2776
34.1241
32.4301
37.0936
33.8732
30.4659
30.827
31.7014
31.8263
31.7736
32.3882
34.9063
31.2064
32.7518
32.8109
33.9989
33.6939
32.1616
34.3671
32.2341
35.9841
32.6252
35.0381
34.8345
37.1344
33.0536
34.9741
33.2805
34.1239
32.4301
37.0909
33.9404
32.1526
34.0316
33.6812
32.3487
32.2213
35.9246
34.8978
31.2069
32.7505
32.8112
33.8688
30.4659
30.8273
31.7015
31.8262
31.7736
32.3887
35.0323
34.8349
37.1313
33.0539
33.9958
33.6938
32.1617
34.3676
32.234
35.9817
32.6256
39.6844
34.3832
37.1255
36.3133
37.2373
38.4956
36.3676
38.6697
38.2998
36.4927
36.4257
40.9387
39.8566
37.2696
38.7858
36.5988
42.335
38.3965
34.2119
34.6306
35.7782
36.1228
35.8571
36.5728
39.7324
35.1037
37.2796
37.0733
38.5544
38.3102
36.3603
39.0259
36.4365
40.9796
36.8628
39.9036
39.5195
42.3776
37.3651
38.3333
34.289
35.7882
34.2001
36.2085
36.0624
35.8468
39.8522
37.2751
38.7856
36.5986
42.3353
38.4921
36.3677
38.6694
38.2996
36.4924
36.4256
40.9382
39.7278
35.1042
37.2765
37.0737
38.3931
34.2118
34.6312
35.7782
36.1204
35.857
36.5734
39.8987
39.52
42.3754
37.3655
38.5509
38.3101
36.3604
39.0265
36.4364
40.9772
36.8633
45.311
39.1173
42.4573
41.6127
42.5285
43.9976
41.8435
44.7668
44.3998
41.8671
41.8767
46.8486
45.4857
42.6427
44.8878
41.9934
48.1493
43.8352
38.9807
39.3541
41.0444
41.1569
41.1171
41.7692
45.3297
39.8404
42.571
42.2025
44.0181
44.41
41.8153
44.9117
41.8868
46.852
42.1384
45.5026
45.2212
48.0442
42.5597
43.8133
39.0001
41.0714
38.97
41.4866
41.1158
41.1072
45.4859
42.6472
44.8873
41.9932
48.1507
43.9976
41.8437
44.7671
44.3995
41.8669
41.8764
46.8496
45.3266
39.8408
42.5683
42.2032
43.8323
38.9806
39.3546
41.0445
41.1541
41.1171
41.7697
45.5
45.222
48.0422
42.5605
44.0153
44.4099
41.8154
44.912
41.8867
46.8495
42.1389
50.8075
45.3296
49.458
48.7065
48.31
50.9979
49.9613
53.352
49.2303
54.3944
49.6855
45.314
45.3334
48.2277
47.0314
48.2822
48.6096
50.7507
45.6245
51.9326
48.1921
48.7736
50.9385
51.9146
53.2838
54.2658
49.2725
49.7312
45.2094
48.2713
45.3041
48.6042
47.0408
48.2717
51.0002
49.9643
53.3521
49.2305
54.3952
50.7489
45.6253
51.9325
48.1901
48.7738
49.6843
45.3138
45.3337
48.2278
47.0289
48.282
48.6097
50.9367
51.9144
53.2837
54.2652
49.2726
55.0868
65.1107
65.136
54.3504
54.1699
65.1934
66.295
55.0012
65.1434
65.1105
54.1712
54.3504
66.2964
65.1954
21.7623
22.4559
23.4169
21.0117
22.5448
21.1438
23.4157
22.456
21.0117
22.5449
27.7479
25.3307
26.9949
96.2791
26.2504
26.4296
172.876
29.8177
27.6581
28.4088
27.4219
28.7318
28.4554
28.4878
33.8194
30.6876
31.6911
30.4535
32.1202
31.7148
31.7609
40.4576
31.2437
32.1317
31.8763
30.2657
34.9758
35.9891
35.7819
39.7462
41.0064
40.7901
45.9111
47.5486
47.258
59.2841
53.9979
59.3179
58.8069
54.8751
24.5447
22.7325
22.6628
24.2634
24.4578
22.7389
24.5444
22.6628
22.7325
24.4578
24.2633
25.2817
26.348
25.803
24.91
24.9191
25.9521
27.8508
29.1362
28.4801
27.425
27.4175
28.6791
30.9701
32.548
31.7458
30.4641
30.4439
31.9922
34.8101
36.7591
35.8204
34.1874
34.1765
36.1019
39.5205
41.8932
41.0703
38.8831
38.9311
41.2159
45.3727
50.4528
48.6188
48.2489
45.3484
45.2675
48.3051
54.1566
64.9572
65.9518
54.9473
55.0186
64.9324
65.0464
54.1808
65.952
64.957
55.0191
54.9471
65.0474
64.9324
27.7514
25.3308
26.9958
96.3232
26.2502
26.4332
172.925
26.9521
24.93
25.2107
25.7554
25.8256
25.8137
26.2639
23.6962
102.018
23.8731
31.373
29.7427
23.7053
102.019
23.9019
26.9503
24.9299
25.211
25.7554
25.8258
25.8136
26.2641
31.5073
29.824
30.019
28.7836
30.2771
30.0402
29.1043
28.8602
31.496
28.6926
30.6617
31.0402
75.659
30.441
59.6218
29.5505
33.9151
35.3245
29.8165
27.6579
28.4092
27.4219
28.7317
28.455
28.4878
28.6852
30.662
31.0399
75.7489
30.4408
29.55
59.7144
30.0181
28.7841
30.277
30.0402
29.1042
28.8602
31.4953
34.1288
35.512
40.6859
31.2438
32.1302
31.8764
30.2777
34.0424
34.7126
33.9547
33.8131
30.6876
31.6912
30.4535
32.12
31.7141
31.7608
34.0452
34.7128
33.9548
34.9756
35.9844
35.7818
38.4814
39.4187
38.1713
38.4872
39.4186
38.1715
39.7463
41.0006
40.7901
44.2198
45.4771
44.2158
48.4689
49.6929
48.7532
49.4811
44.2237
45.4774
44.2159
48.4679
49.697
48.7523
49.4803
45.9107
47.5434
47.2575
50.1769
49.3645
52.9182
52.9808
49.1292
49.3578
53.7001
58.8399
52.0914
53.609
66.1018
51.8551
58.4704
48.7248
53.9591
49.0443
50.1302
52.9985
49.3198
52.8579
49.3698
53.6667
49.1236
58.9205
67.038
52.9419
53.6624
52.1755
56.5817
58.8403
52.0932
53.6096
66.0524
51.8562
58.4705
50.178
49.3648
52.919
52.9804
49.1294
49.3575
53.7
48.724
53.9632
49.043
58.9183
67.0377
52.9417
53.6622
52.1749
56.5821
50.1291
52.9984
49.3198
52.8576
49.3694
53.6668
49.1236
59.2842
53.9972
59.3168
58.8067
54.8741
59.2569
54.326
59.1793
54.7561
58.7006
59.2569
54.326
59.1793
54.756
58.7005
27.6661
29.1302
28.7426
28.4022
27.4081
27.3337
28.4766
29.5612
30.2925
29.1165
28.7774
30.0343
28.8519
29.9613
27.6666
29.1301
28.7429
28.4012
27.4076
27.3331
28.4762
29.5606
30.2929
29.1168
28.776
30.0338
28.8514
29.9603
30.7041
32.6132
32.1142
31.6902
30.4511
30.3776
31.7632
32.8418
34.0311
32.3438
32.1529
33.6871
32.2241
33.6201
30.7045
32.6137
32.1145
31.6895
30.4504
30.3767
31.7624
32.8424
34.0313
32.3441
32.1519
33.6863
32.2233
33.6192
34.29
36.7152
36.2143
35.8034
34.2073
34.1414
35.8675
37.0013
38.6813
36.4993
36.3873
38.3327
36.4499
38.2717
34.2902
36.7174
36.2145
35.8023
34.2063
34.1403
35.8665
37.0035
38.6816
36.4996
36.3862
38.3315
36.4488
38.2705
39.0118
42.0232
41.5091
41.1067
38.9986
38.9405
41.1631
42.3996
44.7951
41.8896
41.8814
44.4589
41.9373
44.406
39.0121
42.0252
41.5095
41.1053
38.9974
38.9393
41.1618
42.4015
44.7952
41.8899
41.8799
44.4574
41.9358
44.405
45.2403
49.0259
48.6471
48.3088
45.3697
45.3221
48.3497
49.5395
53.0242
49.1783
49.3956
53.0406
49.4331
53.0104
45.2409
49.027
48.6476
48.3073
45.3683
45.3209
48.3481
49.5406
53.0247
49.1788
49.394
53.0387
49.4314
53.009
25.1445
60.9268
23.2144
24.5817
77.7772
24.1254
112.494
25.2564
26.4757
25.3067
74.0543
24.2608
25.1445
60.9343
23.2149
24.5855
77.7757
24.1257
112.463
25.2566
26.4754
25.3068
74.0454
24.2611
30.7397
29.7882
30.5322
29.2163
30.5201
30.5265
29.0995
29.4874
33.0663
28.9342
28.5389
30.53
29.5738
30.4373
29.7863
37.2557
29.4821
61.5216
39.1275
29.0049
62.6874
33.2872
33.8193
32.5609
42.8831
32.3589
32.767
32.0938
60.8146
83.086
60.3255
57.3545
33.6531
31.6498
37.6662
32.3264
90.3005
35.2676
36.8898
37.2402
36.2119
36.0137
36.1094
35.3665
34.9943
37.0888
34.9128
34.2891
34.1927
35.7319
35.0926
37.2869
38.4925
36.2444
34.8045
35.186
35.0628
35.6039
35.8831
36.1249
36.9246
36.0569
37.0612
35.4612
36.7383
35.878
36.1714
38.3288
35.1368
36.1008
40.281
42.2589
42.5376
41.4781
41.1568
41.3775
40.3855
39.9282
42.3577
39.7569
39.0136
38.904
40.7985
40.0347
42.7165
44.0449
41.4387
39.5525
40.151
39.9599
40.5946
41.0474
41.1832
42.2559
41.1479
42.4743
40.5076
42.0625
40.9536
41.2275
43.8606
40.0341
41.2591
46.4875
47.989
45.8963
45.1738
45.1003
47.2123
46.5484
49.7706
49.4297
47.9081
55.3513
45.7387
46.715
46.1217
47.1028
47.4403
48.009
49.1776
47.7265
58.4187
49.2493
46.1431
47.6809
25.2816
26.3479
25.8027
24.9099
24.919
25.9521
27.6759
26.5072
26.1113
27.2537
26.1087
27.0791
27.6759
26.5073
26.1116
27.2538
26.1088
27.0796
27.8507
29.1364
28.4798
27.4249
27.417
28.6788
30.7551
29.3296
28.8516
30.2548
28.8669
30.0296
30.7549
29.3295
28.852
30.2548
28.8671
30.0302
30.9703
32.548
31.7453
30.464
30.4436
31.9921
34.5448
32.7873
32.2063
33.9284
32.2242
33.6616
34.5448
32.7872
32.2068
33.9286
32.2243
33.6621
34.8101
36.7593
35.8199
34.1872
34.1758
36.1017
39.1973
37.049
36.4005
38.5582
36.3899
38.2678
39.1974
37.0489
36.4015
38.5584
36.39
38.268
39.5205
41.8934
41.0702
38.8829
38.931
41.2155
44.9594
42.2537
41.8419
44.4497
41.9748
44.3588
44.9593
42.2535
41.8417
44.4517
41.9751
44.3579
45.3729
50.453
48.6195
48.249
45.3466
45.268
48.3048
50.6632
52.8525
49.1318
49.3466
53.0033
49.3954
52.9651
50.6631
52.8517
49.1312
49.3464
53.0037
49.3957
52.9649
29.3013
30.048
166.603
123.719
31.4963
29.6276
29.1761
78.2648
29.2813
28.809
114.875
30.7228
88.5158
27.375
65.6781
27.2804
50.9386
26.7684
55.9808
160.553
117.9
71.1089
80.7782
26.8882
25.9812
25.8565
56.6133
27.2773
26.4591
25.4608
24.0389
90.4894
27.1914
39.9421
26.1156
62.5897
49.4795
26.6036
99.9656
163.256
73.6532
78.3422
27.1189
26.0103
27.4141
27.27
26.6202
68.8102
28.7442
27.4528
101.047
27.9784
177.147
25.3998
29.8575
28.416
28.5365
27.3119
27.3279
27.9798
105.193
151.276
28.9524
155.113
28.7461
109.703
28.1641
27.2869
27.4993
27.1421
27.1568
27.8013
29.2962
30.0144
166.637
29.6338
31.4262
123.713
29.1702
78.1961
29.24
28.807
30.6598
114.848
88.5092
27.3738
65.6044
27.2807
50.8504
26.7686
55.9313
160.527
117.855
71.0382
80.7426
26.9034
25.9814
25.8567
56.6558
27.2881
26.4593
25.5436
24.074
90.4087
27.1907
39.8789
26.1161
62.5907
49.3922
26.604
99.9184
163.227
73.5803
78.3892
27.1191
26.0104
27.4434
27.2832
26.6203
68.7339
28.7478
27.4532
101.03
27.9785
177.242
25.49
29.9101
28.436
28.5368
27.312
27.3709
27.9799
105.157
151.324
28.9517
155.267
28.7462
109.703
28.1639
27.2871
27.5266
27.1422
27.2176
27.8014
30.7346
29.7891
30.5383
29.2172
30.4843
30.5267
29.0999
29.4877
33.1225
28.9346
28.5087
30.5299
29.5616
30.464
37.1804
29.7736
29.472
61.5482
39.056
28.9891
29.7687
29.9859
31.5799
30.3624
30.5878
28.8651
30.4597
29.6756
34.43
30.2468
30.3154
51.4073
35.1124
100.417
56.279
33.9734
65.6663
29.1082
90.9408
29.8299
31.7072
31.4355
30.7956
35.4507
30.6433
30.1126
29.3769
28.2428
28.7234
28.5628
28.4805
29.3045
34.955
30.4266
158.139
28.9337
29.5349
30.1315
28.7506
29.7214
28.5614
29.5101
31.7141
30.2149
30.9646
32.0869
31.7645
30.3436
30.15
30.9847
31.8367
31.8684
31.0756
30.3457
29.7392
30.1372
30.0565
30.8763
29.7798
29.985
31.575
30.4042
30.5886
28.8603
30.4599
29.6753
34.3824
30.2466
30.3064
51.4986
35.1949
56.2038
100.593
34.0507
65.6549
29.1297
91.1947
29.8475
31.7027
31.4362
35.2547
30.7961
30.6433
30.112
29.3769
28.268
28.7236
28.5628
28.5381
29.305
35.0959
30.4271
158.291
28.934
29.5347
30.1321
28.7506
29.9025
28.6219
29.5107
31.7059
30.2143
30.9645
32.2284
31.7662
30.3437
30.4266
30.9856
31.8289
31.8686
31.0756
30.3464
29.935
30.1373
30.3261
30.8771
63.1099
33.2874
33.8217
32.5595
43.1146
32.3571
32.7667
32.0939
60.9372
83.4418
60.4552
57.7436
33.6551
31.6485
32.3253
37.9706
90.6168
33.1912
34.9809
34.6504
34.0294
33.934
33.8842
33.2807
33.5443
35.957
33.9724
33.9191
32.9972
33.7101
58.9781
47.9718
34.5443
33.3779
34.8025
33.7988
34.0302
36.0947
35.0061
34.0988
31.4378
32.986
32.1283
33.143
31.4597
32.423
32.1062
31.2205
32.8449
30.6083
31.5048
31.242
30.5874
32.189
33.9171
33.843
32.9617
32.0766
31.8784
31.8779
32.4696
32.7101
33.752
31.9838
32.839
33.677
32.1066
34.1738
32.4404
32.8277
33.0448
32.3596
34.9054
33.3922
33.0676
32.337
34.1557
33.2875
35.037
34.0598
35.214
33.3102
34.4149
34.0368
35.9994
33.9751
34.9204
35.692
35.8111
34.0513
35.1325
34.8494
36.138
36.037
35.0566
33.804
34.6365
33.7971
35.058
34.7167
33.5446
35.9532
33.9722
33.9218
32.9974
33.7103
58.858
48.139
34.5441
33.3779
34.803
33.7987
34.0309
36.0907
35.0066
34.0985
33.191
34.978
34.6499
34.0292
33.8838
33.2806
33.9338
33.9136
33.8425
32.9611
32.2014
31.8803
31.8782
32.4979
32.7115
33.7484
31.984
32.8385
33.6784
32.1067
34.2671
32.5562
32.8289
31.4379
32.9849
32.1282
33.1418
31.4599
32.4221
32.1062
31.2206
32.8443
30.6084
31.5041
30.5874
31.2421
32.1881
35.9952
33.9746
34.9212
35.775
35.8121
34.0516
35.1066
34.8511
36.1337
36.0372
35.0574
33.8054
34.6129
33.7975
35.0143
34.7183
33.0449
32.3597
34.9026
33.3909
33.0676
32.3371
34.1543
33.2875
35.0341
34.0598
35.2123
33.3103
34.4134
34.0368
37.2862
38.4948
36.2424
34.8048
35.186
35.0625
35.6042
35.8831
36.1201
36.9246
36.0568
37.0618
35.4611
36.7387
35.8782
36.1714
38.3308
35.136
36.0989
37.2878
37.1861
36.4995
39.6011
36.3954
38.1081
37.3954
37.6016
39.7642
39.4166
38.6781
38.5695
38.4297
37.7077
37.4405
40.9802
38.5407
38.3183
37.2144
38.0062
39.2245
37.816
39.6202
38.2569
38.4925
37.3612
37.0258
37.4981
37.9327
38.3288
41.1421
39.8634
38.7037
35.3605
37.3022
36.2411
37.534
35.3954
36.6252
36.2114
35.0919
37.1507
34.3193
35.4897
35.122
34.2955
36.341
38.5444
38.4939
37.3809
35.7789
35.9524
35.9149
39.5233
36.9838
38.3802
36.1808
37.2324
38.236
36.1932
43.6282
40.6603
37.1299
37.3929
36.5289
39.6521
37.8358
37.4244
36.4993
38.7609
37.7031
39.8138
38.7056
40.0513
37.7361
39.0788
38.669
41.0257
38.6495
39.7465
46.7804
40.7459
38.5728
46.0365
39.6409
41.1879
41.0189
39.9059
38.3897
43.8378
38.2629
45.7742
39.4822
35.2675
36.8894
37.2383
36.2116
36.0135
36.1091
35.3663
34.9941
37.087
34.9118
34.2888
35.7316
34.1924
35.0923
37.4411
40.9798
38.5405
38.324
37.2143
38.0065
39.224
37.8158
39.6192
38.2564
38.4916
37.3606
37.0254
37.4978
37.9322
38.328
41.1428
39.8627
38.7035
37.2875
37.1858
36.4992
39.6014
36.395
38.1078
37.3951
37.6013
39.7649
39.4165
38.6778
38.4295
37.7074
38.5695
38.5416
38.4897
37.377
35.8614
35.9533
35.9155
39.5012
36.9832
38.3774
36.1806
37.2289
38.2353
36.1937
43.5806
40.6307
37.1291
35.3605
37.3
36.2411
37.5323
35.3954
36.6234
36.2115
35.0919
37.1486
34.3193
35.488
34.2956
35.122
36.3392
41.022
38.6457
39.7449
46.782
40.7465
38.5732
46.035
39.6415
41.1848
41.0178
39.9045
38.3891
43.7892
38.2632
45.7763
39.4827
37.393
36.5289
39.6499
37.8342
37.4244
36.4994
38.7594
37.7032
39.8118
38.7056
40.0498
37.736
39.0773
38.6691
42.7172
44.0491
41.4388
39.5529
40.1512
39.9608
40.5949
41.0483
41.1774
42.2558
41.1479
42.4756
40.5078
42.0628
40.954
41.2285
43.8651
40.0347
41.2592
42.9444
42.6378
41.8559
45.2979
41.7568
43.8096
43.0387
43.3618
45.4869
45.4716
44.739
44.6601
44.2172
43.4527
42.9054
46.7008
44.2691
44.015
42.6352
43.8067
45.3021
43.5948
45.6955
44.0302
44.4369
42.8553
42.4428
43.1797
43.6198
44.0325
46.8739
45.9321
44.4684
40.3669
42.5681
41.5008
42.7992
40.41
41.7455
41.4554
40.0184
42.39
39.0408
40.3886
40.0599
39.0027
41.4041
44.0794
43.7331
42.5413
46.9243
40.9114
40.8251
47.8637
42.0962
50.0782
49.9283
43.8985
41.188
42.376
43.5124
41.1634
47.6441
48.0654
42.2651
43.0099
41.878
45.3106
43.1612
43.0591
41.8315
44.2603
43.42
45.4994
44.7536
45.7868
43.471
44.6334
44.6974
46.6856
43.9065
45.1165
50.2153
49.5326
47.7195
46.4003
44.0385
47.441
45.35
46.8544
46.5191
45.283
43.9748
47.7103
43.6611
47.4592
44.9201
40.2809
42.2588
42.5357
41.4777
41.1566
41.3774
40.3851
39.928
42.3556
39.7568
39.0133
40.7983
38.9042
40.0343
42.9047
46.7018
44.2681
44.019
42.6355
43.8067
45.3022
43.5947
45.6947
44.0305
44.4357
42.8539
42.442
43.1796
43.6198
44.0312
46.8741
45.9313
44.4674
42.9442
42.6378
41.8554
45.2982
41.7566
43.8096
43.0384
43.361
45.4871
45.4721
44.7385
44.2172
43.4525
44.6594
44.0739
43.7311
42.54
46.9269
40.912
40.8255
47.8693
42.0965
50.0802
49.9312
43.8929
41.1868
42.3747
43.5122
41.1638
47.6427
48.07
42.2654
40.367
42.5643
41.5008
42.7977
40.4099
41.7439
41.4555
40.0185
42.386
39.0408
40.3871
39.0028
40.0598
41.4026
46.6843
43.9043
45.1144
50.2185
49.5328
47.7172
46.4003
44.0394
47.438
45.3503
46.8526
46.5171
45.2809
43.9744
47.7095
43.662
47.4565
44.9198
43.01
41.8779
45.308
43.1597
43.0591
41.8315
44.259
43.4202
45.4967
44.7536
45.7858
43.4715
44.6322
44.6975
49.7719
49.4285
47.9098
55.35
45.7386
46.715
46.1226
47.1026
47.4413
48.0045
49.1769
47.7259
58.4135
49.2485
46.144
47.6825
61.0171
50.2305
52.4225
51.7027
59.4572
51.5417
49.6802
51.2898
58.7404
62.4673
62.9552
62.8174