/*--------------------------------*- C++ -*----------------------------------*\
| =========                 |                                                 |
| \\      /  F ield         | OpenFOAM: The Open Source CFD Toolbox           |
|  \\    /   O peration     | Version:  2206                                  |
|   \\  /    A nd           | Website:  www.openfoam.com                      |
|    \\/     M anipulation  |                                                 |
\*---------------------------------------------------------------------------*/
FoamFile
{
    version     2.0;
    format      ascii;
    arch        "LSB;label=32;scalar=64";
    class       volScalarField;
    location    "600";
    object      k;
}
// * * * * * * * * * * * * * * * * * * * * * * * * * * * * * * * * * * * * * //

dimensions      [0 2 -2 0 0 0 0];

internalField   nonuniform List<scalar> 
198968
(
0.337247
0.309501
0.309695
0.309745
0.309732
0.309685
0.309473
0.337498
0.362027
0.367264
0.369258
0.369099
0.369289
0.369816
0.368399
0.36232
0.421677
0.374887
0.377682
0.37751
0.37782
0.378216
0.376872
0.372973
0.421028
0.389764
0.393057
0.392917
0.393313
0.393516
0.392125
0.387617
0.428396
0.404478
0.409189
0.40937
0.409975
0.409756
0.407773
0.401788
0.444187
0.417273
0.422266
0.423403
0.425058
0.422922
0.421038
0.414656
0.460013
0.430225
0.436838
0.438452
0.440455
0.437516
0.435523
0.427209
0.476824
0.445649
0.451543
0.454532
0.456202
0.452757
0.451064
0.442368
0.496268
0.464119
0.467982
0.471774
0.472303
0.469976
0.468128
0.462427
0.512983
0.489372
0.492051
0.493008
0.493112
0.492847
0.4925
0.488551
0.5277
0.51807
0.522505
0.522805
0.522862
0.522766
0.522572
0.517512
0.565847
0.552052
0.557658
0.557779
0.557795
0.557793
0.557543
0.551162
0.615121
0.599506
0.599438
0.599427
0.599428
0.599433
0.59949
0.591912
0.67377
0.655132
0.65546
0.65548
0.655489
0.655478
0.655512
0.646388
0.743936
0.721714
0.722011
0.722114
0.722148
0.72209
0.722134
0.710946
0.829336
0.802544
0.802779
0.802812
0.802817
0.802806
0.802795
0.789112
0.925042
0.90261
0.902744
0.902759
0.902762
0.902756
0.902743
0.884871
1.05754
1.02972
1.02977
1.02978
1.02978
1.02978
1.02978
1.00664
1.22885
1.19652
1.1964
1.19635
1.19634
1.19637
1.19645
1.1681
1.49833
1.42347
1.42329
1.42311
1.42308
1.42319
1.42339
1.49833
0.385457
0.28892
0.289018
0.289084
0.289069
0.289056
0.289003
0.286565
0.397035
0.305056
0.305138
0.305208
0.305185
0.305178
0.305131
0.302492
0.407517
0.319607
0.319657
0.319732
0.319709
0.319697
0.319666
0.316976
0.417954
0.335403
0.335438
0.335499
0.335482
0.335462
0.33547
0.332584
0.42946
0.352761
0.352817
0.352908
0.35289
0.352862
0.352838
0.349732
0.440036
0.372329
0.372285
0.372263
0.372214
0.372265
0.372337
0.369938
0.452921
0.394166
0.394057
0.394037
0.393962
0.394052
0.394091
0.392888
0.46814
0.418441
0.418412
0.418358
0.418282
0.418397
0.418411
0.416965
0.485119
0.445687
0.445725
0.445682
0.445644
0.4457
0.445718
0.445451
0.506937
0.476405
0.476478
0.476564
0.476562
0.476501
0.476467
0.475912
0.530976
0.51179
0.51158
0.51163
0.511612
0.511601
0.511727
0.511295
0.557374
0.552536
0.552248
0.552156
0.552152
0.552185
0.552447
0.552433
0.600125
0.599616
0.599523
0.599456
0.599426
0.599455
0.599592
0.599418
0.655639
0.655279
0.655278
0.65537
0.65536
0.655388
0.655269
0.655037
0.722299
0.722155
0.722912
0.723203
0.723238
0.723222
0.722893
0.722062
0.803259
0.803448
0.804136
0.804315
0.804311
0.804257
0.804036
0.803254
0.904135
0.904039
0.904499
0.904586
0.904584
0.904633
0.904291
0.903484
1.03213
1.03231
1.03272
1.03242
1.03222
1.03262
1.03264
1.03152
1.20039
1.20032
1.20021
1.19996
1.19983
1.20007
1.20032
1.20014
1.42759
1.4269
1.42616
1.42582
1.42568
1.42593
1.42658
1.42717
0.402879
0.289093
0.28936
0.289362
0.28935
0.289386
0.289347
0.28799
0.417593
0.305222
0.305514
0.305527
0.305523
0.30553
0.305511
0.303939
0.429786
0.319816
0.320128
0.320161
0.320165
0.320148
0.320123
0.3186
0.444904
0.333528
0.333901
0.333938
0.333943
0.333931
0.333891
0.33395
0.461354
0.350867
0.351113
0.351154
0.351156
0.351146
0.351101
0.351036
0.480025
0.369999
0.370164
0.370188
0.370173
0.370185
0.37016
0.370143
0.502869
0.391382
0.391453
0.391476
0.391448
0.391475
0.391441
0.391486
0.524787
0.415218
0.415205
0.415232
0.415194
0.415236
0.415194
0.41549
0.676611
0.441958
0.441889
0.441887
0.44187
0.441895
0.441899
0.441996
0.675192
0.472266
0.47205
0.471995
0.471985
0.471998
0.472098
0.472281
0.653933
0.506897
0.506507
0.506265
0.506288
0.506276
0.506617
0.506903
0.630946
0.547057
0.546514
0.545864
0.545944
0.545885
0.546683
0.546942
0.627838
0.593321
0.593151
0.592684
0.592372
0.592728
0.593222
0.593274
0.648341
0.64767
0.647371
0.647285
0.647064
0.647476
0.647418
0.647646
0.712713
0.712939
0.714083
0.715072
0.714985
0.714994
0.713722
0.712735
0.791191
0.792396
0.793443
0.794182
0.794356
0.794049
0.793214
0.791905
0.888572
0.890046
0.891666
0.893552
0.893699
0.893298
0.891247
0.889398
1.03258
1.01466
1.01621
1.01768
1.01798
1.01736
1.01582
1.03373
1.20097
1.17641
1.17679
1.17763
1.17793
1.1774
1.17664
1.20129
1.4264
1.42588
1.42603
1.42625
1.42633
1.42613
1.42589
1.4261
0.404194
0.28916
0.291771
0.305547
0.308915
0.297832
0.28944
0.287998
0.419151
0.305262
0.306797
0.315717
0.319987
0.310194
0.305575
0.303859
0.432577
0.319797
0.320793
0.327296
0.332712
0.322809
0.320125
0.318378
0.447921
0.333144
0.333938
0.335842
0.338361
0.335066
0.33387
0.334034
0.464305
0.35062
0.351119
0.352535
0.355379
0.35189
0.351037
0.351021
0.484852
0.369804
0.370083
0.371603
0.374413
0.370937
0.370003
0.370043
0.503536
0.391208
0.391368
0.392957
0.39473
0.392253
0.391292
0.391546
0.532114
0.415086
0.415146
0.416779
0.414676
0.416029
0.41508
0.415464
0.692173
0.442031
0.440025
0.440872
0.44426
0.440705
0.440022
0.442058
0.661948
0.47256
0.470402
0.470878
0.473112
0.470644
0.470403
0.472595
0.634406
0.507142
0.504489
0.504922
0.507331
0.504686
0.504508
0.507182
0.630887
0.546796
0.543673
0.542633
0.544365
0.542526
0.543824
0.546861
0.628302
0.593241
0.589474
0.587825
0.588931
0.587756
0.589159
0.593254
0.648339
0.647556
0.643743
0.641973
0.642574
0.641919
0.643661
0.647489
0.712715
0.713173
0.709317
0.709064
0.709721
0.709103
0.709158
0.712948
0.791209
0.792813
0.789142
0.791544
0.792769
0.791408
0.788788
0.792121
0.888304
0.890716
0.893065
0.894989
0.896414
0.894454
0.892593
0.889666
1.03087
1.01406
1.01637
1.01907
1.01974
1.01848
1.01578
1.03241
1.20002
1.17615
1.17809
1.17853
1.17861
1.17848
1.17787
1.20079
1.42606
1.42614
1.42646
1.42656
1.42659
1.42652
1.42635
1.42609
0.404076
0.289197
0.292229
0.61011
0.797464
0.305678
0.289484
0.288036
0.418989
0.305303
0.307221
0.733021
0.941309
0.317417
0.305615
0.303827
0.433241
0.31985
0.321251
0.865512
1.11676
0.329143
0.320178
0.318034
0.448551
0.333415
0.334207
0.799988
2.09643
0.357556
0.333983
0.333748
0.46494
0.350677
0.351426
0.984291
3.33066
0.379412
0.351169
0.350807
0.485793
0.369815
0.37045
1.25389
5.52417
0.398934
0.37016
0.369792
0.50399
0.391194
0.391791
1.5315
8.8555
0.405597
0.391474
0.391385
0.533243
0.41505
0.415602
1.35686
12.9489
0.378055
0.415274
0.415457
0.695399
0.441924
0.440431
0.337128
16.2997
0.337407
0.440293
0.442008
0.664221
0.472524
0.470507
0.506017
14.4716
0.487932
0.470353
0.472633
0.633693
0.50721
0.504554
0.540583
19.3306
0.522735
0.504436
0.507246
0.633145
0.546835
0.543816
0.572617
30.1572
0.564156
0.543826
0.546954
0.629142
0.593176
0.589354
0.616303
54.6243
0.607952
0.589402
0.593243
0.648309
0.647467
0.643595
0.658205
0.653117
0.643553
0.647459
0.712754
0.713947
0.710688
0.712087
0.731487
0.711717
0.710553
0.713536
0.791175
0.792586
0.790176
0.792193
0.794106
0.791721
0.789923
0.792072
0.888149
0.890652
0.893031
0.895941
0.897094
0.895161
0.892562
0.889659
1.03037
1.01371
1.01667
1.01938
1.01998
1.01887
1.01579
1.03216
1.19992
1.1759
1.1784
1.1787
1.17877
1.17865
1.17817
1.20074
1.4261
1.42621
1.4265
1.42661
1.42664
1.42657
1.42641
1.42615
0.40268
0.289137
0.29006
0.291839
0.291371
0.291955
0.289379
0.286926
0.417709
0.305261
0.305892
0.307126
0.3071
0.306882
0.305546
0.302782
0.431217
0.319825
0.320326
0.321128
0.321241
0.320846
0.320137
0.318227
0.447394
0.33302
0.333936
0.334657
0.335093
0.334444
0.333883
0.333593
0.464173
0.35037
0.351094
0.351607
0.352146
0.351421
0.351019
0.350606
0.483514
0.369728
0.370027
0.370628
0.37119
0.370437
0.369977
0.369682
0.50394
0.391214
0.391294
0.391854
0.392434
0.391654
0.39128
0.390983
0.528278
0.415137
0.415067
0.415554
0.416077
0.415374
0.415056
0.415577
0.688524
0.442087
0.44001
0.440499
0.441451
0.440394
0.440013
0.442113
0.662977
0.472496
0.470364
0.470344
0.471207
0.47029
0.470361
0.472531
0.640959
0.507112
0.504459
0.504341
0.505222
0.504275
0.504449
0.507145
0.62978
0.546788
0.543698
0.54238
0.543387
0.542317
0.54382
0.546899
0.627996
0.593218
0.589085
0.587717
0.588262
0.587584
0.589671
0.593299
0.648331
0.647551
0.643947
0.641892
0.642086
0.641856
0.643888
0.647552
0.712697
0.713009
0.709199
0.708985
0.709658
0.709013
0.70915
0.712845
0.791279
0.792708
0.788926
0.791382
0.791954
0.791273
0.788753
0.79216
0.888592
0.890583
0.893051
0.89455
0.895804
0.894206
0.892565
0.889756
1.03195
1.01424
1.0164
1.01869
1.0195
1.0181
1.01588
1.03324
1.20043
1.17607
1.17796
1.17841
1.17855
1.17834
1.17762
1.20104
1.42605
1.42598
1.42628
1.42647
1.42649
1.42641
1.42613
1.42595
0.387057
0.289177
0.289321
0.289327
0.289319
0.28933
0.289318
0.28588
0.400015
0.305302
0.305456
0.30547
0.30546
0.305474
0.305463
0.301594
0.410563
0.319881
0.320059
0.320089
0.320078
0.320092
0.320091
0.315827
0.42036
0.3358
0.335922
0.335964
0.335958
0.335957
0.335966
0.331495
0.433458
0.353215
0.353378
0.353427
0.353417
0.353429
0.353402
0.348285
0.446786
0.372697
0.372759
0.372768
0.372739
0.372782
0.37275
0.36696
0.463752
0.39444
0.394364
0.39436
0.394321
0.394381
0.394343
0.387821
0.480384
0.41856
0.418451
0.418431
0.418385
0.418465
0.418434
0.411556
0.499064
0.442009
0.441929
0.441892
0.441848
0.441919
0.441898
0.442365
0.518347
0.472367
0.472103
0.472064
0.472027
0.472057
0.472038
0.471955
0.535975
0.506943
0.506652
0.506519
0.506472
0.506399
0.506593
0.506872
0.564348
0.546795
0.546532
0.546152
0.546006
0.54609
0.546587
0.547023
0.598655
0.593244
0.593095
0.592827
0.592563
0.592865
0.59313
0.593322
0.655297
0.647458
0.647253
0.647292
0.647093
0.647407
0.647273
0.647585
0.721878
0.712789
0.714069
0.714672
0.714573
0.714711
0.713672
0.712761
0.802789
0.792168
0.793065
0.793601
0.793595
0.793637
0.792794
0.79183
0.90343
0.889718
0.890788
0.891899
0.891933
0.891983
0.890274
0.904383
1.03234
1.03329
1.03439
1.0348
1.035
1.03469
1.03387
1.03295
1.20116
1.20125
1.20138
1.20163
1.20164
1.2015
1.20132
1.20129
1.42725
1.42633
1.426
1.42603
1.42605
1.42598
1.42612
1.42669
0.337711
0.309373
0.309537
0.309643
0.309634
0.309539
0.30942
0.336936
0.361514
0.289198
0.2881
0.288442
0.28876
0.288157
0.28877
0.361738
0.400142
0.306191
0.305001
0.305349
0.305651
0.305054
0.305661
0.292111
0.405036
0.321064
0.31973
0.320114
0.32043
0.319791
0.320433
0.315605
0.412036
0.337329
0.335791
0.336153
0.336446
0.33584
0.3366
0.331815
0.425742
0.357735
0.355688
0.355365
0.354809
0.355694
0.356921
0.352408
0.445923
0.382255
0.379646
0.379138
0.378185
0.379748
0.381152
0.37857
0.46841
0.410626
0.408394
0.406637
0.405394
0.407984
0.409253
0.408487
0.494953
0.44308
0.44228
0.438835
0.438043
0.440825
0.442353
0.440668
0.518936
0.475186
0.476892
0.476159
0.476087
0.476217
0.476636
0.470716
0.544907
0.510247
0.511974
0.511942
0.511925
0.511953
0.511705
0.505304
0.575004
0.552456
0.552526
0.552548
0.552555
0.55253
0.552655
0.546001
0.610862
0.599346
0.599692
0.599676
0.599679
0.599677
0.599772
0.591808
0.663981
0.655039
0.655442
0.655494
0.655515
0.655465
0.655487
0.645899
0.732083
0.721836
0.722391
0.722658
0.722759
0.722542
0.722259
0.710332
0.815242
0.802944
0.803491
0.803599
0.803612
0.803568
0.803389
0.788542
0.919405
0.903354
0.903616
0.903664
0.903671
0.903649
0.903602
0.885172
1.05252
1.03097
1.03103
1.031
1.031
1.03101
1.03108
1.00728
1.22756
1.1984
1.19834
1.19832
1.19829
1.19834
1.19839
1.16929
1.49833
1.42586
1.42549
1.42539
1.42539
1.4254
1.42571
1.49833
0.333889
0.346415
0.346643
0.333016
0.333884
0.345921
0.34658
0.333933
0.346656
0.34669
0.333936
0.334446
0.346653
0.346966
0.333943
0.346695
0.346699
0.334634
0.335056
0.347145
0.347643
0.333941
0.346698
0.346698
0.335058
0.334648
0.347643
0.347148
0.333902
0.346688
0.346656
0.334459
0.333936
0.346967
0.346655
0.333543
0.346643
0.346411
0.333884
0.33302
0.346582
0.345924
0.351101
0.365008
0.365185
0.350366
0.351016
0.364751
0.36504
0.351148
0.365194
0.365223
0.351093
0.351416
0.36511
0.365494
0.351157
0.365226
0.365224
0.351596
0.352106
0.365677
0.366222
0.351156
0.365223
0.365228
0.352107
0.351598
0.366229
0.365679
0.351113
0.365221
0.365193
0.351416
0.351095
0.365493
0.365115
0.350863
0.365184
0.365003
0.351019
0.350369
0.365045
0.364751
0.37016
0.385843
0.385907
0.369726
0.369971
0.385687
0.385712
0.370188
0.385913
0.385939
0.370025
0.370429
0.385752
0.386123
0.370173
0.385938
0.385913
0.370615
0.371174
0.386323
0.386954
0.37019
0.385912
0.38594
0.371184
0.370618
0.386974
0.386326
0.370164
0.385936
0.385912
0.370429
0.37003
0.386122
0.385757
0.369995
0.385906
0.385839
0.369975
0.369725
0.385717
0.385685
0.391443
0.409041
0.408998
0.391214
0.391253
0.408864
0.408842
0.391478
0.40901
0.409045
0.391292
0.391647
0.408869
0.40919
0.391448
0.409039
0.409002
0.391841
0.39251
0.409363
0.410093
0.391479
0.409002
0.409042
0.392533
0.391844
0.410112
0.409364
0.391452
0.409042
0.409009
0.391646
0.391298
0.409186
0.408873
0.391378
0.408996
0.409037
0.391257
0.391211
0.408845
0.408861
0.415195
0.434967
0.434918
0.415135
0.415045
0.435053
0.434782
0.415239
0.434913
0.434935
0.415068
0.415376
0.434798
0.435052
0.415195
0.434925
0.4349
0.415545
0.416298
0.435209
0.435878
0.415235
0.434899
0.434929
0.416311
0.415546
0.435869
0.435206
0.415204
0.434932
0.434912
0.415371
0.415072
0.435045
0.4348
0.415214
0.434917
0.434963
0.415048
0.415132
0.434783
0.435053
0.4419
0.46433
0.464176
0.442086
0.440005
0.464527
0.466399
0.441898
0.464148
0.464114
0.440011
0.4404
0.466379
0.466325
0.44187
0.464111
0.464102
0.4405
0.441326
0.466405
0.467232
0.441891
0.464102
0.464115
0.441308
0.440489
0.46724
0.466396
0.441888
0.464111
0.464147
0.440391
0.440011
0.466321
0.466382
0.441954
0.464175
0.464327
0.440002
0.442087
0.466398
0.464525
0.472099
0.497756
0.497519
0.472491
0.470368
0.498011
0.499952
0.472001
0.497431
0.497263
0.470352
0.470272
0.499933
0.499767
0.471986
0.497244
0.49724
0.470354
0.471192
0.499867
0.500728
0.472
0.497239
0.497249
0.471194
0.470347
0.500726
0.499854
0.47205
0.49726
0.497431
0.470269
0.470358
0.499765
0.499943
0.472264
0.497518
0.497764
0.470365
0.472492
0.499961
0.498028
0.506617
0.536461
0.536111
0.507098
0.504456
0.536356
0.538578
0.506279
0.535891
0.535387
0.50444
0.50428
0.538422
0.539737
0.506288
0.535381
0.535522
0.504357
0.505224
0.539795
0.54082
0.50627
0.535522
0.535381
0.505222
0.50434
0.540817
0.539775
0.506506
0.53538
0.535887
0.504277
0.504448
0.539724
0.53842
0.506903
0.536091
0.536396
0.504466
0.507115
0.538574
0.536345
0.546723
0.581073
0.580972
0.546815
0.543829
0.580919
0.583583
0.545891
0.580858
0.580356
0.543697
0.542321
0.583504
0.584452
0.545944
0.580267
0.579829
0.54238
0.543427
0.584452
0.585155
0.545865
0.579886
0.580114
0.543424
0.542366
0.585152
0.584448
0.546504
0.580327
0.580855
0.542308
0.543696
0.584405
0.583027
0.546927
0.580954
0.581043
0.543823
0.546794
0.583078
0.580894
0.593225
0.633188
0.632988
0.59323
0.589674
0.633064
0.636587
0.59277
0.632937
0.632768
0.589636
0.587616
0.636619
0.638306
0.592276
0.632658
0.632491
0.587662
0.588259
0.638337
0.638259
0.592567
0.632468
0.632698
0.588256
0.587648
0.638251
0.638313
0.59315
0.632778
0.632937
0.587603
0.589082
0.638301
0.636619
0.593316
0.632987
0.633188
0.589161
0.593224
0.636586
0.633062
0.647419
0.695548
0.695833
0.64756
0.643888
0.695652
0.700321
0.647402
0.696095
0.696911
0.643945
0.641858
0.700338
0.704517
0.647138
0.696972
0.696836
0.641884
0.642073
0.70461
0.705335
0.647499
0.696801
0.69696
0.642065
0.641878
0.705324
0.704607
0.64737
0.696907
0.696094
0.641858
0.643945
0.704518
0.700338
0.647669
0.695832
0.695547
0.643887
0.647557
0.70032
0.695651
0.713723
0.770909
0.771982
0.713017
0.709144
0.771292
0.778159
0.714995
0.772211
0.772721
0.709192
0.708931
0.778297
0.780405
0.715024
0.772812
0.772978
0.708981
0.709634
0.780529
0.78172
0.715069
0.772979
0.772811
0.709625
0.708978
0.78172
0.78053
0.714083
0.772719
0.772209
0.708932
0.709193
0.780405
0.778252
0.712939
0.771982
0.770919
0.709144
0.713017
0.778082
0.771289
0.793204
0.863522
0.864649
0.792731
0.788753
0.864002
0.872564
0.794049
0.865007
0.866338
0.788953
0.791264
0.872843
0.874166
0.794349
0.866626
0.866915
0.79139
0.792531
0.874317
0.875776
0.794181
0.866925
0.866625
0.792531
0.79139
0.875776
0.874317
0.793446
0.866338
0.865007
0.791264
0.788922
0.874166
0.872843
0.792404
0.864647
0.863522
0.78869
0.792719
0.872563
0.863999
0.891247
0.980539
0.981789
0.890601
0.892566
0.980376
0.982023
0.893298
0.982201
0.983371
0.89305
0.894297
0.982519
0.984084
0.893696
0.983629
0.983911
0.894775
0.895925
0.984851
0.986057
0.893551
0.983959
0.983629
0.895925
0.894775
0.986056
0.984852
0.891666
0.983371
0.982201
0.894297
0.89305
0.984084
0.982519
0.890046
0.981789
0.980539
0.892566
0.8906
0.982023
0.980376
1.01582
1.132
1.13241
1.01427
1.01588
1.13109
1.13277
1.01736
1.13253
1.13312
1.0164
1.01816
1.13334
1.13415
1.01796
1.13341
1.13373
1.01884
1.01958
1.13426
1.13444
1.01768
1.13374
1.13341
1.01958
1.01884
1.13444
1.13426
1.01621
1.13312
1.13253
1.01816
1.0164
1.13415
1.13334
1.01466
1.13241
1.132
1.01588
1.01427
1.13277
1.13109
1.17664
1.30555
1.30573
1.1761
1.17763
1.30579
1.30623
1.1774
1.30592
1.30625
1.17796
1.17834
1.30649
1.30662
1.17792
1.30645
1.30651
1.1784
1.17853
1.30677
1.30683
1.17763
1.30652
1.30645
1.17853
1.1784
1.30683
1.30677
1.17679
1.30625
1.30592
1.17834
1.17796
1.30662
1.30649
1.17641
1.30573
1.30555
1.17763
1.1761
1.30623
1.30579
0.33387
0.346168
0.346587
0.333417
0.333981
0.346239
0.346707
0.335129
0.346669
0.347455
0.334208
0.345066
0.346963
0.357574
0.338376
0.348103
0.35093
0.811312
2.16805
0.927842
2.9997
0.335846
0.350915
0.348098
2.06676
1.07093
2.8971
1.31784
0.333938
0.347443
0.346672
0.356511
0.334211
0.372321
0.346973
0.333174
0.346589
0.346172
0.333985
0.333429
0.346715
0.346246
0.351034
0.364858
0.365064
0.350677
0.35116
0.364874
0.365206
0.351895
0.365154
0.365991
0.351424
0.361372
0.3655
0.370946
0.355393
0.366646
0.369496
0.970029
3.36318
1.1322
4.83784
0.35253
0.369501
0.366645
3.26439
1.41256
4.76614
1.78136
0.351122
0.365991
0.365159
0.377486
0.351436
0.391297
0.36552
0.350623
0.365069
0.364857
0.351169
0.350683
0.365218
0.364875
0.369998
0.38569
0.385744
0.369814
0.370147
0.385676
0.385912
0.370935
0.385826
0.386698
0.370447
0.373749
0.386235
0.379613
0.374412
0.387394
0.389694
1.19259
5.45209
1.37327
7.75728
0.371604
0.389641
0.387406
5.39525
1.92967
7.76717
2.45269
0.370088
0.386703
0.385833
0.395009
0.370469
0.401606
0.386262
0.369802
0.385749
0.385686
0.37016
0.369814
0.385925
0.385674
0.391287
0.408837
0.408875
0.391193
0.391461
0.408821
0.409061
0.392248
0.408946
0.409825
0.391789
0.379997
0.409395
0.376629
0.394891
0.410573
0.410302
1.4132
8.64187
1.35451
11.5359
0.392971
0.409729
0.410588
8.68254
2.62293
11.7375
2.90194
0.391375
0.409834
0.40895
0.400643
0.391817
0.385219
0.409421
0.391205
0.408877
0.408833
0.391474
0.391191
0.409069
0.408818
0.415079
0.434984
0.434822
0.415049
0.415268
0.434881
0.435017
0.41602
0.434872
0.435706
0.415602
0.379057
0.435343
0.423007
0.415495
0.436494
0.438841
1.23965
12.4797
0.64516
14.8911
0.416792
0.438763
0.436522
12.7787
2.81981
15.5977
1.69381
0.415149
0.435713
0.434871
0.377061
0.415626
0.388428
0.435353
0.415083
0.43482
0.434982
0.415275
0.415047
0.435016
0.434881
0.440024
0.464587
0.466436
0.441923
0.440296
0.464496
0.466398
0.440706
0.466435
0.466693
0.440432
0.431964
0.466542
0.484209
0.444307
0.466926
0.469197
0.346493
15.883
0.502121
15.5846
0.440872
0.469162
0.466927
16.4282
0.437819
14.171
0.500577
0.440023
0.466694
0.466435
0.345171
0.44043
0.483939
0.466528
0.442029
0.466437
0.464586
0.440294
0.441923
0.466389
0.464497
0.470403
0.498076
0.500003
0.472523
0.470364
0.498149
0.499938
0.470642
0.499987
0.500174
0.470506
0.488245
0.500062
0.518602
0.473123
0.500431
0.502813
0.505976
15.6301
0.535855
19.2699
0.47088
0.502811
0.500418
14.1197
0.503939
18.2455
0.534725
0.470403
0.500171
0.499987
0.487926
0.470492
0.518096
0.500052
0.47256
0.500005
0.498077
0.470356
0.472524
0.499933
0.49815
0.504507
0.53634
0.538564
0.507209
0.504444
0.536353
0.538583
0.504688
0.538407
0.539957
0.504553
0.523252
0.538601
0.561702
0.507333
0.54004
0.541757
0.540549
20.1445
0.569975
29.1168
0.504906
0.541755
0.540019
19.2315
0.539483
29.032
0.569761
0.504488
0.539933
0.538395
0.522733
0.504544
0.561459
0.538599
0.507142
0.538558
0.536338
0.504439
0.50721
0.538583
0.536353
0.543824
0.580918
0.583368
0.546834
0.543828
0.580898
0.583188
0.542544
0.583314
0.584509
0.543815
0.564322
0.583219
0.605078
0.544367
0.584543
0.585944
0.572614
30.1277
0.61367
52.6869
0.542615
0.585943
0.584539
30.181
0.572502
52.6155
0.614091
0.54367
0.584485
0.58303
0.564155
0.543815
0.605373
0.583222
0.546793
0.583082
0.580914
0.543829
0.546834
0.583192
0.580898
0.589485
0.633058
0.636411
0.593176
0.5894
0.633004
0.63634
0.587766
0.636467
0.638357
0.589354
0.60768
0.636392
0.650017
0.588933
0.638424
0.638728
0.616293
54.5693
0.655356
49.917
0.587819
0.638718
0.6383
54.3663
0.616659
49.8453
0.655341
0.589074
0.638324
0.636465
0.607937
0.589357
0.650017
0.636382
0.593239
0.636408
0.633043
0.589404
0.593175
0.636332
0.632974
0.643665
0.695735
0.700355
0.647519
0.643559
0.696212
0.701718
0.641926
0.700464
0.704582
0.643603
0.653089
0.701899
0.707371
0.642585
0.704626
0.705452
0.658187
0.707958
0.738274
0.641937
0.705436
0.704623
0.658174
0.738274
0.707956
0.643741
0.704582
0.700462
0.653092
0.643595
0.707369
0.70191
0.647527
0.70035
0.695736
0.643559
0.647455
0.701752
0.69622
0.709163
0.771439
0.77826
0.713944
0.710555
0.771425
0.779118
0.709103
0.778408
0.780701
0.710689
0.711699
0.779467
0.781021
0.709736
0.780843
0.782056
0.712067
0.731481
0.781388
0.783488
0.709062
0.782056
0.780843
0.731481
0.712065
0.783488
0.781387
0.709315
0.7807
0.778307
0.711698
0.71069
0.78102
0.779486
0.713172
0.77813
0.771432
0.710561
0.713946
0.779136
0.771415
0.788898
0.864155
0.872598
0.792615
0.789924
0.864087
0.872596
0.791408
0.872849
0.874191
0.790175
0.791663
0.872829
0.875103
0.792769
0.874369
0.876149
0.792135
0.794063
0.875635
0.87692
0.791543
0.876149
0.874369
0.794063
0.792135
0.87692
0.875635
0.789059
0.874191
0.872849
0.791663
0.79018
0.875103
0.872829
0.792784
0.872598
0.864132
0.789929
0.792585
0.872595
0.864075
0.892593
0.980267
0.981954
0.890655
0.892563
0.980014
0.981894
0.894455
0.982467
0.984473
0.893031
0.895171
0.982656
0.985041
0.896415
0.985144
0.986234
0.895916
0.897008
0.985543
0.986495
0.894989
0.986233
0.985144
0.897008
0.895916
0.986495
0.985543
0.893065
0.984473
0.982466
0.89517
0.893031
0.985041
0.982655
0.890709
0.981953
0.980267
0.892562
0.890651
0.981894
0.980014
1.01578
1.13095
1.13298
1.01371
1.01579
1.13061
1.13333
1.01848
1.13352
1.13437
1.01667
1.01887
1.13386
1.13458
1.01974
1.13444
1.13453
1.01938
1.01998
1.13463
1.13471
1.01907
1.13453
1.13444
1.01998
1.01938
1.13471
1.13463
1.01637
1.13437
1.13352
1.01887
1.01667
1.13458
1.13386
1.01406
1.13298
1.13095
1.01579
1.01371
1.13333
1.13061
1.17787
1.30615
1.30655
1.1759
1.17817
1.30622
1.30671
1.17848
1.30675
1.30687
1.1784
1.17865
1.30685
1.30695
1.17861
1.30694
1.30697
1.1787
1.17877
1.30701
1.30705
1.17853
1.30697
1.30694
1.17877
1.1787
1.30705
1.30701
1.17809
1.30687
1.30675
1.17865
1.1784
1.30695
1.30685
1.17615
1.30655
1.30615
1.17817
1.1759
1.30671
1.30622
0.33398
0.346238
0.346708
0.333177
0.333869
0.346176
0.346586
0.345629
0.346964
0.357886
0.333939
0.335053
0.34667
0.347456
2.12049
0.930219
2.98593
0.335803
0.338319
0.348111
0.350774
1.08643
2.93662
1.34966
0.337949
0.335756
0.349946
0.348096
0.334208
0.373726
0.346971
0.335127
0.333938
0.347463
0.346673
0.333426
0.346714
0.346243
0.33387
0.33316
0.346589
0.346177
0.351161
0.364875
0.365207
0.350626
0.351033
0.364858
0.365063
0.361509
0.365502
0.371427
0.351119
0.351905
0.365154
0.366005
3.36776
1.17667
4.91594
0.352551
0.355193
0.366669
0.369058
1.45364
4.85629
1.86422
0.354056
0.352542
0.366058
0.366671
0.351435
0.394516
0.36552
0.351906
0.351123
0.366006
0.36516
0.350681
0.365218
0.364873
0.351037
0.350627
0.365069
0.364856
0.370148
0.385677
0.385913
0.369804
0.369997
0.385687
0.385743
0.37432
0.386237
0.379045
0.370083
0.370947
0.385826
0.386707
5.55811
1.47481
7.94696
0.371625
0.373837
0.387417
0.388262
2.03013
7.90831
2.62099
0.369855
0.371629
0.379896
0.387425
0.370469
0.406181
0.386261
0.370951
0.370091
0.386717
0.385835
0.369813
0.385925
0.385673
0.370003
0.369802
0.385751
0.385684
0.391462
0.408822
0.409061
0.391206
0.391285
0.408833
0.408873
0.378171
0.409396
0.371306
0.391368
0.392255
0.408944
0.409829
8.8546
1.49095
11.7903
0.392979
0.392971
0.410595
0.405671
2.81269
11.885
3.12592
0.382812
0.392988
0.389615
0.410592
0.391816
0.38866
0.409422
0.392267
0.391377
0.409843
0.408951
0.39119
0.409069
0.408816
0.391292
0.391202
0.408877
0.40883
0.415268
0.434882
0.435017
0.415083
0.415076
0.434986
0.434819
0.373374
0.435344
0.419765
0.415144
0.416022
0.434869
0.435703
12.7483
0.680133
15.343
0.4168
0.41
0.436514
0.436354
3.03954
15.9912
1.82162
0.392585
0.416795
0.42458
0.436539
0.415626
0.383548
0.435352
0.416036
0.41515
0.435715
0.434869
0.415044
0.435016
0.434878
0.415079
0.415079
0.434817
0.434991
0.440297
0.464497
0.4664
0.442029
0.440024
0.464584
0.466445
0.427817
0.466543
0.484231
0.440027
0.440711
0.466441
0.466688
15.7653
0.502212
15.8213
0.440878
0.445534
0.466925
0.469175
0.460741
14.5621
0.50071
0.446675
0.440878
0.469159
0.466984
0.440429
0.483949
0.466526
0.440711
0.440031
0.466735
0.466434
0.441921
0.466387
0.464495
0.440026
0.442034
0.466433
0.464583
0.470365
0.49815
0.49994
0.472558
0.470412
0.498075
0.500009
0.488268
0.500063
0.518619
0.470409
0.470638
0.499994
0.500169
15.85
0.535889
19.3647
0.470877
0.473112
0.500415
0.502807
0.503952
18.3534
0.534724
0.473125
0.470935
0.502801
0.500441
0.47049
0.518101
0.500049
0.470685
0.470402
0.500178
0.499988
0.472522
0.499931
0.498147
0.4704
0.472557
0.500002
0.498073
0.504446
0.536353
0.538585
0.50714
0.504512
0.536336
0.538562
0.523268
0.538602
0.561704
0.504495
0.504686
0.538403
0.539963
20.2192
0.569984
29.1293
0.50491
0.507328
0.540028
0.541688
0.53948
28.9941
0.569755
0.507321
0.504929
0.541721
0.540049
0.504542
0.56146
0.538596
0.504691
0.504491
0.539962
0.538412
0.507208
0.53858
0.536351
0.504506
0.507138
0.538565
0.536336
0.54383
0.580899
0.583191
0.546791
0.543828
0.580912
0.583084
0.564325
0.583219
0.605095
0.543678
0.542547
0.583039
0.584853
30.1447
0.613683
52.9411
0.542616
0.544276
0.584854
0.585938
0.572497
52.8695
0.614101
0.544324
0.542642
0.585938
0.584449
0.543812
0.60539
0.583219
0.542549
0.543678
0.584406
0.583321
0.546832
0.58319
0.580897
0.543825
0.546792
0.583366
0.580913
0.589402
0.632979
0.636333
0.593237
0.589162
0.633041
0.636411
0.607698
0.636381
0.650081
0.589083
0.587857
0.636475
0.638367
54.8278
0.655373
49.9981
0.587914
0.588924
0.638441
0.638724
0.61667
49.9198
0.655375
0.588927
0.58768
0.638732
0.638295
0.589354
0.650044
0.63638
0.587617
0.58948
0.638333
0.636476
0.593174
0.636329
0.632974
0.589486
0.593237
0.636412
0.63304
0.64356
0.696221
0.701753
0.647525
0.643664
0.695733
0.700354
0.653156
0.701909
0.707427
0.643752
0.641935
0.700475
0.704569
0.707985
0.738281
0.641991
0.642581
0.704641
0.70544
0.658208
0.738281
0.707975
0.642589
0.64196
0.705449
0.704674
0.643595
0.707388
0.701895
0.641933
0.643753
0.70464
0.700477
0.647457
0.701716
0.696212
0.643666
0.647524
0.700356
0.695732
0.710561
0.771416
0.779135
0.713169
0.709162
0.771428
0.778135
0.71173
0.779482
0.781066
0.709329
0.709111
0.778327
0.780693
0.731487
0.781427
0.783534
0.709084
0.709724
0.780835
0.781453
0.712083
0.783534
0.781426
0.709733
0.709116
0.781454
0.780861
0.710686
0.781065
0.779462
0.709181
0.709332
0.780727
0.778425
0.713943
0.779116
0.771424
0.709165
0.713169
0.778263
0.771434
0.789929
0.864075
0.872595
0.79278
0.788792
0.864127
0.872607
0.791721
0.872825
0.875156
0.789079
0.79143
0.872887
0.874215
0.794106
0.875677
0.876989
0.791558
0.792118
0.874385
0.876066
0.792192
0.876989
0.875677
0.792118
0.791561
0.876066
0.874385
0.79017
0.875156
0.872824
0.791434
0.78916
0.874215
0.872887
0.792615
0.872594
0.864086
0.788901
0.792808
0.872606
0.864149
0.892563
0.980014
0.981894
0.890703
0.892598
0.98026
0.981953
0.895161
0.982656
0.985041
0.893085
0.894406
0.982466
0.984442
0.897094
0.985542
0.986495
0.894851
0.89634
0.985066
0.9862
0.895941
0.986495
0.985542
0.89634
0.894851
0.9862
0.985066
0.893031
0.985041
0.982655
0.894406
0.893085
0.984442
0.982466
0.890655
0.981894
0.980014
0.892598
0.89071
0.981953
0.98026
1.01579
1.13061
1.13333
1.01406
1.01578
1.13092
1.13298
1.01887
1.13386
1.13458
1.01637
1.01847
1.13352
1.13437
1.01998
1.13463
1.13471
1.01905
1.01973
1.13444
1.13453
1.01938
1.13471
1.13463
1.01973
1.01905
1.13453
1.13444
1.01667
1.13458
1.13386
1.01847
1.01637
1.13437
1.13352
1.01371
1.13333
1.13061
1.01578
1.01406
1.13298
1.13092
1.17817
1.30622
1.30671
1.17616
1.17787
1.30615
1.30655
1.17865
1.30685
1.30695
1.17809
1.17848
1.30675
1.30687
1.17877
1.30701
1.30705
1.17853
1.17861
1.30694
1.30697
1.1787
1.30705
1.30701
1.17861
1.17853
1.30697
1.30694
1.1784
1.30695
1.30685
1.17848
1.17809
1.30687
1.30675
1.1759
1.30671
1.30622
1.17787
1.17616
1.30655
1.30615
0.333883
0.345925
0.346581
0.333511
0.333888
0.346385
0.346639
0.334429
0.346654
0.346969
0.333899
0.333934
0.346653
0.346691
0.335101
0.347157
0.347673
0.333942
0.333953
0.3467
0.34671
0.334614
0.347685
0.347149
0.333954
0.333944
0.34671
0.346701
0.333936
0.346969
0.346657
0.333937
0.333903
0.346694
0.346657
0.333025
0.346581
0.345928
0.33389