/*--------------------------------*- C++ -*----------------------------------*\
| =========                 |                                                 |
| \\      /  F ield         | OpenFOAM: The Open Source CFD Toolbox           |
|  \\    /   O peration     | Version:  2206                                  |
|   \\  /    A nd           | Website:  www.openfoam.com                      |
|    \\/     M anipulation  |                                                 |
\*---------------------------------------------------------------------------*/
FoamFile
{
    version     2.0;
    format      ascii;
    arch        "LSB;label=32;scalar=64";
    class       volScalarField;
    location    "600";
    object      omega;
}
// * * * * * * * * * * * * * * * * * * * * * * * * * * * * * * * * * * * * * //

dimensions      [0 0 -1 0 0 0 0];

internalField   nonuniform List<scalar> 
198968
(
8.3821
7.51172
7.51767
7.51889
7.51856
7.51751
7.51114
8.38678
8.86725
9.03307
9.07652
9.07534
9.08551
9.09413
9.06125
8.87297
10.2455
9.09067
9.14954
9.14814
9.16085
9.16567
9.1343
9.06618
10.0799
9.3348
9.40515
9.40454
9.41979
9.41806
9.38731
9.3063
10.114
9.57912
9.67885
9.68469
9.70504
9.69197
9.65125
9.54008
10.4165
9.78456
9.89177
9.91637
9.95739
9.90589
9.86741
9.74688
10.7178
9.9958
10.1368
10.1702
10.2156
10.1511
10.1108
9.95193
11.0432
10.2557
10.3895
10.4492
10.4839
10.4141
10.38
10.2121
11.4195
10.5768
10.6817
10.7567
10.7669
10.7213
10.6846
10.5733
11.643
11.0397
11.1283
11.148
11.1499
11.1445
11.1371
11.0602
11.7757
11.5795
11.7062
11.7127
11.7138
11.7118
11.7074
11.6084
12.5216
12.2344
12.3816
12.3843
12.3847
12.3845
12.3792
12.2529
13.52
13.2025
13.1981
13.1979
13.1979
13.198
13.1992
13.0482
14.7014
14.3254
14.3313
14.3317
14.3319
14.3317
14.3324
14.1519
16.1038
15.6593
15.6647
15.6668
15.6675
15.6663
15.6672
15.4474
17.7959
17.2655
17.2697
17.2703
17.2704
17.2702
17.27
17.0033
19.6672
19.236
19.2382
19.2385
19.2385
19.2384
19.2382
18.8927
22.2437
21.7139
21.7146
21.7147
21.7147
21.7147
21.7148
21.2717
25.5386
24.9285
24.9261
24.9251
24.9249
24.9255
24.9272
24.3893
30.6544
29.2464
29.243
29.2396
29.2389
29.241
29.2449
30.6544
10.0058
6.7436
6.7466
6.74825
6.74793
6.74752
6.74618
6.70734
10.122
7.08983
7.09229
7.09396
7.09342
7.09319
7.09218
7.04841
10.24
7.40031
7.40217
7.40395
7.40345
7.40309
7.40239
7.35899
10.3572
7.73612
7.73775
7.73926
7.73889
7.73835
7.73845
7.69191
10.4914
8.10371
8.10587
8.108
8.1076
8.10694
8.10629
8.05539
10.6028
8.51702
8.5166
8.51619
8.51516
8.51619
8.51774
8.47732
10.7579
8.97627
8.97388
8.97351
8.97191
8.97381
8.97465
8.95389
10.9613
9.48373
9.48307
9.48194
9.48033
9.48278
9.48309
9.45711
11.2022
10.0506
10.0513
10.0503
10.0495
10.0508
10.0512
10.0459
11.5428
10.6862
10.6876
10.6894
10.6893
10.6881
10.6874
10.6764
11.9321
11.4142
11.4098
11.4108
11.4105
11.4102
11.4129
11.4047
12.3745
12.2476
12.2416
12.2397
12.2397
12.2403
12.2457
12.2456
13.2159
13.2044
13.2024
13.2011
13.2004
13.201
13.2038
13.2006
14.3349
14.3279
14.3278
14.3296
14.3294
14.33
14.3276
14.3233
15.6702
15.6676
15.6827
15.6885
15.6892
15.6889
15.6823
15.666
17.2789
17.2829
17.2965
17.3
17.3
17.2989
17.2945
17.2793
19.2652
19.2636
19.2726
19.2743
19.2743
19.2752
19.2685
19.253
21.7601
21.7638
21.7717
21.7659
21.7621
21.7699
21.7702
21.7486
25.0024
25.0013
24.9992
24.9944
24.9918
24.9965
25.0013
24.9978
29.3243
29.3112
29.2972
29.2908
29.2883
29.2929
29.3053
29.3164
10.3469
6.74675
6.75428
6.7545
6.75453
6.75468
6.75409
6.73182
10.5458
7.09232
7.10048
7.10071
7.10072
7.10072
7.10049
7.07294
10.7101
7.40388
7.4124
7.4129
7.41294
7.41275
7.41239
7.38193
10.9345
7.69553
7.70543
7.70599
7.70596
7.70591
7.70525
7.70604
11.1921
8.06393
8.07012
8.07074
8.07065
8.07065
8.06988
8.06732
11.5006
8.46806
8.47209
8.47235
8.47189
8.47235
8.47202
8.47071
11.8929
8.91773
8.91932
8.91955
8.9188
8.91961
8.91911
8.91914
12.2821
9.41641
9.41602
9.4163
9.41535
9.41646
9.41582
9.4209
15.7478
9.97287
9.97131
9.97098
9.97045
9.97124
9.97157
9.97292
15.5363
10.6004
10.5958
10.5943
10.5939
10.5945
10.5968
10.6006
14.9289
11.3134
11.3053
11.3
11.3003
11.3003
11.3076
11.3137
14.2648
12.1355
12.1243
12.1107
12.1121
12.1112
12.1277
12.1333
13.949
13.0765
13.073
13.0632
13.0567
13.0642
13.0744
13.0758
14.1906
14.1746
14.1685
14.1665
14.162
14.1704
14.1694
14.1743
15.4792
15.4836
15.5063
15.526
15.5242
15.5245
15.4992
15.4798
17.0405
17.0642
17.0849
17.0995
17.1029
17.0969
17.0804
17.0548
18.9608
18.9895
19.0213
19.0583
19.0611
19.0533
19.0131
18.9772
21.7691
21.4222
21.4522
21.4808
21.4867
21.4746
21.4446
21.791
25.0137
24.5444
24.5517
24.5678
24.5735
24.5633
24.5488
25.0199
29.3018
29.292
29.295
29.299
29.3007
29.2969
29.2922
29.2962
10.3665
6.74814
6.77711
6.89512
6.90928
6.83319
6.75507
6.72749
10.5705
7.09308
7.11078
7.18034
7.2062
7.13743
7.10093
7.06622
10.7607
7.40325
7.41629
7.46377
7.49836
7.43033
7.41149
7.37291
11.0017
7.68472
7.70444
7.71792
7.73835
7.7123
7.70378
7.70652
11.2596
8.05752
8.06833
8.08098
8.10415
8.07591
8.06748
8.06499
11.6045
8.46379
8.46836
8.48308
8.50572
8.47737
8.46762
8.46635
11.9196
8.9141
8.91541
8.93013
8.94723
8.9242
8.9148
8.91914
12.4223
9.41338
9.41251
9.42636
9.42999
9.42021
9.41219
9.42052
16.0605
9.97411
9.93099
9.9364
9.95975
9.9352
9.93126
9.9734
15.2909
10.6062
10.56
10.5555
10.5724
10.5543
10.5604
10.6066
14.5537
11.3181
11.262
11.2557
11.2728
11.2549
11.2628
11.3193
14.261
12.1298
12.0644
12.0317
12.0413
12.0311
12.0679
12.1315
13.9576
13.0746
12.9968
12.9534
12.9522
12.9532
12.9907
13.0752
14.1904
14.172
14.0943
14.0526
14.0509
14.0522
14.0929
14.1711
15.4791
15.4881
15.4107
15.4041
15.415
15.4051
15.4076
15.484
17.0408
17.0724
16.9997
17.0471
17.0712
17.0444
16.9927
17.059
18.9555
19.0026
19.0486
19.0864
19.1143
19.0759
19.0394
18.9824
21.7359
21.4106
21.4553
21.5077
21.5208
21.4963
21.4438
21.7655
24.9955
24.5393
24.5765
24.5851
24.5866
24.584
24.5723
25.0103
29.2953
29.297
29.303
29.305
29.3054
29.3042
29.3009
29.296
10.363
6.74912
6.78127
8.60963
9.71078
6.90672
6.75528
6.72771
10.5634
7.09416
7.11401
9.39576
10.6035
7.21704
7.10101
7.06427
10.7695
7.40466
7.41966
10.186
11.5956
7.5157
7.41183
7.36563
11.0107
7.69235
7.70614
11.2425
15.4723
8.06599
7.70453
7.70058
11.27
8.05891
8.07048
12.5972
17.8459
8.52276
8.06853
8.06125
11.6205
8.46387
8.47126
14.0382
20.6937
9.06273
8.46903
8.46158
11.9274
8.91348
8.91886
15.1195
23.7116
9.62074
8.91648
8.91632
12.4424
9.41236
9.41609
14.315
27.0493
9.86323
9.41382
9.42048
16.1186
9.97161
9.93404
10.0672
29.9898
9.985
9.93323
9.97241
15.3327
10.6051
10.5564
10.8442
40.7373
10.6933
10.5558
10.6072
14.5406
11.3192
11.2574
11.5534
50.7718
11.4058
11.2576
11.3205
14.3099
12.1303
12.0619
12.2845
61.6752
12.2144
12.0644
12.1333
13.977
13.073
12.9896
13.1932
83.4469
13.1247
12.9925
13.0749
14.1897
14.17
14.0882
14.1873
14.1413
14.0888
14.1704
15.4799
15.5035
15.4373
15.4478
15.6551
15.4437
15.435
15.4957
17.0401
17.0679
17.0201
17.0595
17.0969
17.0502
17.0151
17.0581
18.9524
19.0014
19.048
19.105
19.1276
19.0897
19.0388
18.9823
21.7262
21.4037
21.4611
21.5137
21.5254
21.5038
21.4441
21.7607
24.9936
24.5346
24.5825
24.5882
24.5896
24.5874
24.578
25.0092
29.2962
29.2984
29.3039
29.3059
29.3064
29.3051
29.3021
29.297
10.3395
6.7479
6.76113
6.78113
6.77692
6.7799
6.75447
6.70825
10.5426
7.09333
7.10386
7.11448
7.11386
7.11208
7.10094
7.04722
10.7344
7.40412
7.41387
7.41978
7.42045
7.4175
7.41238
7.36962
10.9888
7.68141
7.7051
7.71029
7.71353
7.70854
7.70451
7.69675
11.2565
8.05071
8.06869
8.07413
8.07822
8.07244
8.06755
8.05644
11.5818
8.46185
8.46816
8.47543
8.47974
8.47357
8.46756
8.45975
11.9274
8.91429
8.91491
8.92093
8.9252
8.91899
8.91508
8.90748
12.3595
9.41454
9.41198
9.41617
9.418
9.41481
9.41225
9.4227
15.9964
9.97538
9.93108
9.934
9.94001
9.93326
9.93141
9.97457
15.3161
10.6049
10.5597
10.5515
10.556
10.5522
10.5599
10.6055
14.6857
11.3176
11.2618
11.251
11.2547
11.2517
11.262
11.3186
14.24
12.1298
12.0654
12.0297
12.0331
12.0295
12.0682
12.1324
13.9522
13.0742
12.9893
12.9539
12.9498
12.9521
13.0015
13.0762
14.1902
14.172
14.0987
14.0526
14.0473
14.0523
14.0977
14.1724
15.4788
15.4849
15.4085
15.4029
15.4147
15.4036
15.4075
15.4819
17.0422
17.0703
16.9954
17.0439
17.0552
17.0418
16.9919
17.0598
18.9611
19
19.0483
19.0777
19.1023
19.071
19.0388
18.9842
21.7568
21.4141
21.4559
21.5003
21.5161
21.4888
21.4458
21.7815
25.0035
24.5379
24.574
24.5827
24.5854
24.5814
24.5675
25.015
29.2951
29.2941
29.2996
29.3032
29.3035
29.302
29.2967
29.2933
10.0455
6.75001
6.75374
6.75398
6.75378
6.75404
6.7536
6.69691
10.1915
7.09552
7.0995
7.09984
7.09959
7.09994
7.09961
7.03425
10.3193
7.40669
7.41116
7.41175
7.41148
7.41184
7.41182
7.33893
10.422
7.74558
7.74842
7.74923
7.74907
7.74912
7.74932
7.66996
10.5868
8.11425
8.11807
8.11904
8.1188
8.11912
8.11857
8.02617
10.7573
8.52535
8.52679
8.52692
8.52625
8.52723
8.52663
8.42004
11.0015
8.98215
8.98044
8.98028
8.97942
8.98075
8.98003
8.85879
11.2442
9.48619
9.4839
9.48341
9.4824
9.48415
9.48359
9.35727
11.5221
9.97404
9.9724
9.97148
9.97049
9.97209
9.97178
9.97983
11.8089
10.6025
10.5971
10.5962
10.5953
10.5961
10.5958
10.5943
12.0719
11.3146
11.3085
11.3056
11.3046
11.3032
11.3073
11.3133
12.5562
12.1304
12.1249
12.117
12.1139
12.1158
12.1261
12.1351
13.1793
13.0752
13.0721
13.0666
13.0611
13.0674
13.0729
13.0769
14.3279
14.1706
14.1664
14.1671
14.163
14.1694
14.1668
14.1732
15.6621
15.4809
15.5064
15.5184
15.5164
15.5192
15.4985
15.4804
17.2698
17.0601
17.0778
17.0884
17.0882
17.0891
17.0724
17.0534
19.2516
18.9834
19.0044
19.0261
19.0268
19.0278
18.9943
19.27
21.7644
21.7828
21.8042
21.8121
21.816
21.81
21.7941
21.7761
25.0174
25.0191
25.0216
25.0264
25.0267
25.024
25.0204
25.0199
29.3178
29.3004
29.2943
29.2949
29.2952
29.2939
29.2965
29.3074
8.39834
7.5085
7.51382
7.51658
7.51633
7.51362
7.51003
8.37436
8.86646
6.7382
6.71865
6.7241
6.73003
6.71952
6.73217
8.86029
10.2353
7.14467
7.12429
7.13005
7.13551
7.12503
7.13732
6.79074
10.1569
7.46743
7.44422
7.45065
7.45631
7.44509
7.45799
7.36546
10.1898
7.81685
7.78903
7.79495
7.80011
7.78961
7.80457
7.71743
10.3566
8.24403
8.20673
8.20005
8.18936
8.20656
8.22963
8.14684
10.6583
8.75167
8.70344
8.69318
8.67506
8.70501
8.73152
8.68258
11.0101
9.33573
9.29418
9.26032
9.23671
9.28609
9.31023
9.29233
11.4453
10.0011
9.98638
9.92046
9.90539
9.95842
9.98764
9.94907
11.839
10.6631
10.6961
10.682
10.6806
10.6831
10.6911
10.5717
12.2783
11.3847
11.4179
11.4173
11.417
11.4175
11.4128
11.2845
12.8043
12.2463
12.2473
12.2478
12.2479
12.2474
12.2499
12.1166
13.4529
13.1995
13.2059
13.2056
13.2056
13.2056
13.2075
13.0488
14.502
14.3236
14.3311
14.3322
14.3326
14.3316
14.332
14.1423
15.8634
15.6618
15.6723
15.6777
15.6797
15.6753
15.6697
15.4353
17.5133
17.2734
17.2837
17.2859
17.2862
17.2853
17.2817
16.9922
19.561
19.2505
19.2553
19.2562
19.2564
19.256
19.255
18.8989
22.1505
21.7382
21.739
21.7385
21.7385
21.7386
21.7399
21.2845
25.5166
24.9646
24.9634
24.9628
24.9623
24.9633
24.9643
24.4124
30.6544
29.2915
29.2845
29.2828
29.2826
29.2829
29.2887
30.6544
7.7052
7.96976
7.97556
7.68129
7.7045
7.95652
7.97362
7.70594
7.97582
7.97637
7.70508
7.70847
7.97471
7.97783
7.70597
7.97641
7.97636
7.71001
7.71352
7.97938
7.9836
7.70606
7.97635
7.97648
7.71352
7.71011
7.98358
7.97941
7.70545
7.97633
7.97582
7.70856
7.7051
7.97783
7.97477
7.69603
7.97556
7.96968
7.7045
7.68142
7.97368
7.95662
8.06988
8.36282
8.36721
8.05061
8.06748
8.3568
8.36354
8.07069
8.36738
8.36782
8.06863
8.07229
8.36456
8.36948
8.07066
8.36782
8.36763
8.07386
8.0782
8.37115
8.37583
8.0708
8.36762
8.36787
8.07818
8.07389
8.37582
8.3712
8.07011
8.36777
8.36737
8.07228
8.06871
8.36948
8.36467
8.06386
8.3672
8.36274
8.06755
8.05069
8.36364
8.3568
8.47204
8.80162
8.80304
8.46181
8.46741
8.7984
8.7983
8.47241
8.80314
8.80349
8.4681
8.47338
8.79867
8.80304
8.4719
8.8034
8.80273
8.4751
8.47985
8.805
8.81008
8.4724
8.80271
8.80345
8.47986
8.47515
8.81009
8.80505
8.47207
8.80343
8.80312
8.47338
8.46821
8.80302
8.79879
8.46798
8.80302
8.80154
8.46752
8.46179
8.7984
8.79835
8.91914
9.28753
9.28647
8.91428
8.91449
9.28357
9.28252
8.91967
9.28669
9.28722
8.91487
8.91885
9.28262
9.2858
8.91882
9.28702
9.2861
8.92063
8.92596
9.28701
9.29122
8.91961
9.28609
9.28709
8.92596
8.92067
9.29118
9.28699
8.91929
9.28716
9.28667
8.91882
8.91498
9.2857
9.2827
8.91765
9.28645
9.28744
8.91459
8.91423
9.28259
9.28352
9.41585
9.82766
9.82656
9.41449
9.41201
9.82927
9.82298
9.41652
9.82641
9.82665
9.41202
9.41487
9.82283
9.82443
9.41536
9.82636
9.82568
9.41598
9.41988
9.82515
9.82823
9.41637
9.82567
9.82644
9.41983
9.41594
9.82816
9.82504
9.416
9.82659
9.8264
9.41475
9.41209
9.82425
9.82285
9.41632
9.82654
9.82758
9.41207
9.41443
9.82301
9.82926
9.97159
10.4364
10.4331
9.97536
9.93122
10.4403
10.4781
9.97129
10.4325
10.4316
9.9311
9.93347
10.4773
10.4703
9.97046
10.4314
10.431
9.93399
9.93955
10.4702
10.4743
9.97107
10.431
10.4315
9.93944
9.93371
10.4744
10.47
9.97129
10.4315
10.4325
9.93325
9.9311
10.4702
10.4774
9.97279
10.4331
10.4363
9.93117
9.97537
10.478
10.4402
10.5968
11.1256
11.1206
10.6048
10.5601
11.1306
11.1695
10.5945
11.1188
11.1151
10.5594
10.5518
11.1688
11.159
10.5939
11.1146
11.1143
10.5516
10.5558
11.159
11.1626
10.5944
11.1143
11.1147
10.5558
10.5515
11.1626
11.1588
10.5958
11.115
11.1188
10.5517
10.5596
11.1591
11.1691
10.6003
11.1206
11.1258
10.56
10.6048
11.1697
11.131
11.3076
11.9191
11.9118
11.3173
11.2621
11.9167
11.9611
11.3004
11.9073
11.8967
11.2614
11.2517
11.9576
11.9767
11.3003
11.8965
11.8992
11.2513
11.2548
11.9769
11.9806
11.3001
11.8992
11.8965
11.2548
11.251
11.9806
11.9765
11.3053
11.8966
11.9072
11.2517
11.2616
11.9765
11.9576
11.3136
11.9114
11.9177
11.2623
11.3177
11.9611
11.9165
12.1286
12.828
12.8258
12.1303
12.0684
12.8246
12.8779
12.1113
12.8235
12.8131
12.0654
12.0295
12.876
12.8883
12.1121
12.8112
12.8021
12.0297
12.034
12.8874
12.8861
12.1107
12.8033
12.8081
12.0339
12.0294
12.886
12.8873
12.1241
12.8125
12.8234
12.0293
12.0654
12.8874
12.8663
12.1328
12.8255
12.8274
12.0683
12.1299
12.8676
12.8241
13.0745
13.8827
13.8786
13.0745
13.0015
13.88
13.9505
13.065
13.8776
13.874
13.0005
12.9528
13.951
13.9806
13.0548
13.8717
13.8682
12.9528
12.9497
13.9807
13.9693
13.0608
13.8678
13.8725
12.9497
12.9525
13.9692
13.9802
13.0729
13.8742
13.8776
12.9525
12.9892
13.9805
13.951
13.0764
13.8786
13.8827
12.9911
13.0743
13.9505
13.88
14.1695
15.1358
15.1414
14.1722
14.0977
15.1377
15.2309
14.1689
15.1466
15.1629
14.0987
14.0524
15.2312
15.3136
14.1634
15.1641
15.1613
14.0524
14.047
15.3153
15.3278
14.1708
15.1606
15.1638
14.0469
14.0523
15.3276
15.3152
14.1684
15.1628
15.1466
14.0524
14.0987
15.3136
15.2312
14.1746
15.1414
15.1357
14.0977
14.1721
15.2309
15.1377
15.4992
16.6381
16.6593
15.485
15.4074
16.6456
16.7819
15.5245
16.6639
16.674
15.4083
15.402
16.7846
16.8263
15.525
16.6758
16.679
15.4028
15.4142
16.8287
16.8522
15.526
16.679
16.6757
15.414
15.4028
16.8522
16.8287
15.5063
16.6739
16.6638
15.402
15.4083
16.8263
16.7837
15.4836
16.6594
16.6383
15.4074
15.485
16.7803
16.6456
17.0802
18.4683
18.4905
17.0708
16.9919
18.4777
18.6461
17.0969
18.4975
18.5237
16.9959
17.0416
18.6516
18.6776
17.1028
18.5293
18.535
17.0441
17.0666
18.6806
18.7092
17.0995
18.5352
18.5293
17.0666
17.0441
18.7092
18.6806
17.085
18.5237
18.4975
17.0416
16.9953
18.6776
18.6516
17.0644
18.4904
18.4683
16.9907
17.0706
18.6461
18.4777
19.0131
20.7586
20.7829
19.0004
19.0388
20.7554
20.7874
19.0533
20.791
20.8137
19.0483
19.0728
20.7971
20.8275
19.0611
20.8187
20.8242
19.0822
19.1047
20.8425
20.866
19.0583
20.8251
20.8187
19.1047
19.0822
20.866
20.8425
19.0213
20.8137
20.791
19.0728
19.0483
20.8275
20.7971
18.9895
20.783
20.7586
19.0388
19.0004
20.7874
20.7554
21.4446
23.6909
23.6987
21.4146
21.4459
23.6733
23.7056
21.4746
23.701
23.7124
21.4559
21.49
23.7165
23.7323
21.4861
23.718
23.7242
21.5032
21.5176
23.7344
23.7378
21.4808
23.7243
23.718
21.5176
21.5032
23.7378
23.7344
21.4522
23.7124
23.701
21.49
21.4559
23.7323
23.7166
21.4222
23.6987
23.6909
21.4459
21.4146
23.7056
23.6733
24.5488
27.0097
27.013
24.5383
24.5676
27.0141
27.0226
24.5633
27.0166
27.023
24.574
24.5813
27.0276
27.0301
24.5734
27.0268
27.028
24.5825
24.585
27.0328
27.034
24.5678
27.0281
27.0268
24.585
24.5825
27.034
27.0328
24.5517
27.023
27.0166
24.5813
24.574
27.0301
27.0276
24.5444
27.013
27.0097
24.5676
24.5383
27.0226
27.0141
7.70377
7.96327
7.97333
7.69241
7.70447
7.96506
7.97417
7.71261
7.9742
7.98127
7.70614
7.89254
7.97618
8.16897
7.7382
7.98633
8.00914
11.2569
15.4702
12.1965
17.199
7.71802
8.00931
7.98637
15.3404
12.4133
17.1098
13.7378
7.70445
7.98132
7.97427
8.05014
7.70622
8.37847
7.97636
7.68556
7.97339
7.96338
7.70456
7.69269
7.97434
7.96523
8.06741
8.35957
8.36358
8.05894
8.06834
8.35979
8.36472
8.07583
8.36454
8.37338
8.07044
8.26445
8.36714
8.56437
8.10398
8.37896
8.40187
12.5108
17.8484
13.4905
20.0018
8.08099
8.40198
8.37905
17.7724
14.1998
19.9527
15.7016
8.0684
8.37343
8.36467
8.49371
8.07065
8.87275
8.36746
8.0576
8.36368
8.35955
8.06853
8.0591
8.36496
8.35982
8.46751
8.79837
8.79846
8.46385
8.46876
8.79776
8.79994
8.47731
8.7992
8.80799
8.4712
8.66731
8.8025
8.98179
8.50571
8.81389
8.83314
13.805
20.7704
14.5989
23.2014
8.48318
8.83301
8.81405
20.7221
16.2173
23.1159
17.7314
8.46849
8.80804
8.79934
9.00484
8.47154
9.40475
8.80288
8.46376
8.79857
8.7983
8.46901
8.46388
8.80019
8.79774
8.9147
9.28294
9.28267
8.91345
8.91625
9.28236
9.28426
8.92416
9.28312
9.29124
8.91882
9.08354
9.28668
9.37464
8.94753
9.29734
9.30503
14.7428
24.043
14.391
26.6803
8.9303
9.30504
9.29741
23.9321
18.1411
26.4791
18.5317
8.91554
9.29122
9.28318
9.52474
8.9192
9.77215
9.28695
8.91403
9.28272
9.28287
8.91648
8.91343
9.28439
9.2823
9.41217
9.82774
9.82324
9.41235
9.41375
9.82533
9.82476
9.42028
9.82317
9.82937
9.41609
9.47331
9.82666
9.86368
9.42992
9.8353
9.85174
13.9294
27.6556
11.5569
31.3516
9.42637
9.85376
9.8353
27.4344
18.199
31.1202
14.8593
9.41255
9.82919
9.82313
9.80046
9.4163
9.88784
9.82665
9.41332
9.82318
9.82772
9.41384
9.4123
9.82469
9.82531
9.93132
10.4414
10.4785
9.9716
9.93337
10.4392
10.4741
9.93542
10.478
10.4729
9.93409
9.97992
10.4746
10.6132
9.95994
10.474
10.4912
10.0539
30.1254
10.763
37.4113
9.93619
10.4912
10.4739
30.4469
11.4605
39.9078
10.7471
9.93095
10.4728
10.478
9.97574
9.93393
10.611
10.4744
9.97409
10.4785
10.4414
9.93327
9.9716
10.4739
10.4393
10.5604
11.1319
11.1702
10.6051
10.556
11.133
11.1651
10.5544
11.1695
11.1622
10.5565
10.6958
11.1651
11.3154
10.5724
11.1636
11.1803
10.8439
38.6496
11.4586
50.1395
10.5555
11.1803
11.1633
40.9401
10.8255
48.7358
11.4499
10.56
11.1622
11.1695
10.6933
10.5563
11.3116
11.165
10.6061
11.1703
11.1319
10.5559
10.6051
11.1651
11.1331
11.2628
11.9163
11.9605
11.3192
11.2577
11.9162
11.9573
11.2549
11.9568
11.9785
11.2574
11.4097
11.9553
12.1629
11.2728
11.9787
11.9876
11.5534
52.2389
12.2307
62.6063
11.2554
11.9876
11.9784
50.4354
11.5454
60.9067
12.2283
11.262
11.9781
11.9566
11.4057
11.2573
12.1603
11.9553
11.3181
11.9604
11.9162
11.2576
11.3192
11.9573
11.9162
12.0679
12.8245
12.8732
12.1303
12.0645
12.8238
12.8663
12.0313
12.8717
12.8869
12.0619
12.2163
12.8649
13.0636
12.0414
12.8863
12.8909
12.2844
63.4898
13.1346
81.4284
12.0314
12.8909
12.8862
62.1016
12.2828
82.1819
13.1386
12.0644
12.8864
12.8659
12.2144
12.0619
13.0664
12.8649
12.1298
12.8673
12.8244
12.0645
12.1303
12.8664
12.8238
12.9974
13.8799
13.9468
13.073
12.9925
13.8785
13.9432
12.9535
13.9476
13.9802
12.9896
13.1221
13.9427
14.0716
12.9522
13.9808
13.9721
13.193
82.9366
14.1206
77.3823
12.9533
13.9719
13.9782
83.4389
13.1965
77.0124
14.1203
12.9886
13.9795
13.9475
13.1245
12.9896
14.0716
13.9425
13.0746
13.9467
13.8796
12.9926
13.073
13.943
13.8779
14.093
15.1394
15.2315
14.1711
14.0889
15.1488
15.2581
14.0524
15.2336
15.3145
14.0884
14.141
15.2613
15.3535
14.0511
15.3151
15.329
14.187
15.3608
15.6757
14.0519
15.3287
15.3151
14.1868
15.6757
15.3607
14.0943
15.3145
15.2336
14.141
14.0882
15.3534
15.2615
14.1715
15.2314
15.1394
14.0889
14.1698
15.2588
15.1489
15.4077
16.6485
16.7839
15.5034
15.435
16.6482
16.8008
15.4051
16.7868
16.8321
15.4374
15.4434
16.8077
16.8379
15.4153
16.8349
16.8588
15.4474
15.655
16.845
16.8858
15.4041
16.8588
16.8349
15.655
15.4474
16.8858
16.845
15.4107
16.8321
16.7848
15.4434
15.4374
16.8379
16.8081
15.4881
16.7813
16.6484
15.4352
15.5035
16.8012
16.648
16.9948
18.4807
18.6468
17.0685
17.0151
18.4794
18.6468
17.0444
18.6517
18.6781
17.0201
17.0491
18.6514
18.696
17.0712
18.6816
18.7166
17.0584
17.0961
18.7064
18.7317
17.0471
18.7166
18.6816
17.0961
17.0584
18.7317
18.7064
16.998
18.6781
18.6517
17.0491
17.0202
18.696
18.6513
17.0718
18.6468
18.4803
17.0152
17.0679
18.6468
18.4791
19.0394
20.7533
20.7861
19.0014
19.0388
20.7483
20.7849
19.0759
20.7961
20.8351
19.048
19.0899
20.7998
20.8462
19.1143
20.8482
20.8694
19.1045
19.1259
20.856
20.8745
19.0864
20.8694
20.8482
19.1259
19.1045
20.8745
20.856
19.0486
20.8351
20.7961
19.0899
19.048
20.8462
20.7997
19.0025
20.7861
20.7533
19.0388
19.0014
20.7849
20.7483
21.4438
23.6706
23.7096
21.4037
21.4441
23.664
23.7163
21.4963
23.7201
23.7364
21.4611
21.5038
23.7267
23.7405
21.5208
23.7378
23.7396
21.5137
21.5254
23.7414
23.743
21.5077
23.7396
23.7378
21.5254
21.5137
23.743
23.7414
21.4553
23.7364
23.7201
21.5038
21.4611
23.7405
23.7267
21.4106
23.7096
23.6706
21.4441
21.4036
23.7163
23.664
24.5723
27.0211
27.0287
24.5346
24.578
27.0225
27.0317
24.584
27.0325
27.0349
24.5825
24.5874
27.0344
27.0362
24.5866
27.0361
27.0367
24.5882
24.5896
27.0375
27.0381
24.5851
27.0367
27.0361
24.5896
24.5882
27.0381
27.0375
24.5765
27.0349
27.0325
24.5874
24.5825
27.0362
27.0344
24.5393
27.0287
27.0211
24.578
24.5346
27.0317
27.0225
7.70446
7.96503
7.97419
7.68567
7.70376
7.96349
7.97333
7.88883
7.9762
8.1713
7.70446
7.71232
7.97423
7.98154
15.4694
12.2408
17.2188
7.71787
7.73733
7.98671
8.00759
12.4638
17.1906
13.8339
7.7313
7.71766
7.99767
7.98678
7.70618
8.40019
7.97635
7.71282
7.70448
7.98159
7.97431
7.69263
7.97432
7.96517
7.70379
7.68515
7.9734
7.96354
8.06836
8.3598
8.36475
8.0577
8.06741
8.35958
8.36358
8.26977
8.3672
8.58051
8.06835
8.07612
8.36457
8.37362
17.8734
13.6758
20.0124
8.08137
8.10218
8.37939
8.39905
14.3195
19.9533
15.9164
8.09049
8.08149
8.38018
8.37956
8.07065
8.91852
8.36748
8.07616
8.06845
8.37375
8.36472
8.05904
8.36497
8.35978
8.06749
8.05773
8.3637
8.35956
8.46879
8.79779
8.79997
8.4638
8.4675
8.79831
8.79845
8.6871
8.80254
9.00947
8.46837
8.47753
8.79921
8.80813
20.7622
14.9438
23.0826
8.48348
8.50235
8.81423
8.82677
16.4677
22.9544
18.09
8.48061
8.48366
8.79567
8.81441
8.47156
9.48954
8.80289
8.47768
8.46855
8.80833
8.7994
8.46384
8.8002
8.79771
8.46764
8.46376
8.79861
8.79826
8.91627
9.28238
9.28426
8.91404
8.91469
9.28287
9.28263
9.11176
9.28669
9.39335
8.91541
8.92427
9.28308
9.29124
23.8733
14.8308
26.3486
8.93045
8.93963
9.29753
9.28964
18.5309
26.1256
18.9954
8.9057
8.9306
9.24873
9.29743
8.9192
9.85402
9.28693
8.92446
8.9156
9.29136
9.28322
8.9134
9.28438
9.28224
8.91483
8.91397
9.28271
9.28281
9.41375
9.82534
9.82476
9.41332
9.41211
9.82779
9.82318
9.48419
9.82666
9.85879
9.41247
9.42024
9.82311
9.8292
27.2819
11.7354
30.8717
9.42652
9.41255
9.83535
9.84096
18.6712
30.7588
15.2126
9.37064
9.42633
9.81112
9.83525
9.41627
9.89273
9.82662
9.42033
9.41257
9.82917
9.82309
9.41225
9.82467
9.82526
9.41216
9.41326
9.82312
9.8279
9.93337
10.4392
10.4741
9.97408
9.9313
10.4414
10.4787
9.97234
10.4746
10.6134
9.93103
9.93541
10.4782
10.4727
29.6256
10.7638
37.0997
9.93647
9.96358
10.4739
10.4903
11.6063
39.6567
10.7482
9.96506
9.93621
10.4899
10.4754
9.9339
10.6111
10.4744
9.93526
9.93111
10.4738
10.478
9.97155
10.4739
10.4392
9.93136
9.97419
10.4784
10.4413
10.556
11.1331
11.1651
10.6061
10.5606
11.1318
11.1704
10.696
11.1651
11.3156
10.5601
10.5542
11.1696
11.162
38.3905
11.4585
50.5372
10.5554
10.5715
11.1631
11.1801
10.826
49.0893
11.45
10.5715
10.5569
11.18
11.1638
10.5562
11.3117
11.165
10.5553
10.56
11.1623
11.1695
10.6051
11.165
11.133
10.5604
10.6061
11.1702
11.1318
11.2577
11.9162
11.9573
11.3181
11.2629
11.9162
11.9604
11.4099
11.9553
12.163
11.2621
11.2548
11.9567
11.9786
52.663
12.2309
62.3192
11.2554
11.2726
11.9785
11.9855
11.5455
60.5411
12.2283
11.2725
11.2559
11.9867
11.979
11.2572
12.1603
11.9552
11.255
11.262
11.9787
11.9569
11.3192
11.9572
11.9162
11.2628
11.3181
11.9605
11.9162
12.0645
12.8238
12.8664
12.1297
12.068
12.8244
12.8674
12.2164
12.8649
13.0639
12.0645
12.0314
12.8661
12.8942
63.1456
13.1348
81.3782
12.0314
12.0384
12.893
12.8908
12.2828
82.136
13.1388
12.0403
12.032
12.8908
12.8843
12.0618
13.0667
12.8648
12.0315
12.0645
12.8847
12.8718
12.1302
12.8663
12.8238
12.0679
12.1297
12.8731
12.8244
12.9926
13.878
13.943
13.0745
12.9908
13.8795
13.9467
13.1223
13.9425
14.0724
12.9888
12.9553
13.9478
13.9804
82.9528
14.1209
77.4779
12.9553
12.952
13.9811
13.972
13.1967
77.1189
14.1208
12.9521
12.9503
13.9721
13.9781
12.9895
14.0719
13.9425
12.9502
12.9969
13.9797
13.9478
13.073
13.9429
13.8779
12.9974
13.0745
13.9468
13.8795
14.0889
15.149
15.2589
14.1714
14.093
15.1393
15.2315
14.1417
15.2615
15.3545
14.0945
14.0526
15.2338
15.3142
15.3612
15.6758
14.053
14.0511
15.3154
15.3287
14.1872
15.6758
15.361
14.0512
14.0523
15.3289
15.3161
14.0882
15.3537
15.2612
14.0525
14.0945
15.3156
15.2339
14.1698
15.2581
15.1488
14.093
14.1714
15.2316
15.1393
15.4352
16.648
16.8012
15.488
15.4077
16.6483
16.7814
15.444
16.808
16.8388
15.411
15.4052
16.7852
16.8319
15.6551
16.8458
16.8868
15.4045
15.415
16.8347
16.8468
15.4477
16.8868
16.8458
15.4152
15.4052
16.8468
16.8353
15.4373
16.8388
16.8076
15.4066
15.411
16.8326
16.7871
15.5034
16.8008
16.6482
15.4078
15.488
16.7839
16.6484
17.0152
18.4791
18.6467
17.0718
16.9927
18.4802
18.647
17.0503
18.6513
18.697
16.9984
17.0449
18.6525
18.6786
17.0969
18.7073
18.733
17.0474
17.0583
18.6819
18.7149
17.0595
18.733
18.7073
17.0583
17.0474
18.7149
18.6819
17.02
18.697
18.6513
17.0449
17
18.6786
18.6525
17.0685
18.6467
18.4794
16.9949
17.0723
18.647
18.4806
19.0388
20.7483
20.7849
19.0024
19.0395
20.7531
20.7861
19.0897
20.7998
20.8462
19.049
19.0749
20.7961
20.8345
19.1276
20.856
20.8745
19.0837
19.1129
20.8467
20.8688
19.105
20.8745
20.856
19.1129
19.0837
20.8688
20.8467
19.048
20.8462
20.7997
19.0749
19.049
20.8345
20.7961
19.0014
20.7849
20.7483
19.0395
19.0025
20.7861
20.7531
21.4441
23.664
23.7163
21.4104
21.4438
23.67
23.7096
21.5038
23.7267
23.7405
21.4553
21.4962
23.7201
23.7364
21.5254
23.7414
23.743
21.5074
21.5206
23.7378
23.7396
21.5137
23.743
23.7414
21.5206
21.5074
23.7396
23.7378
21.4611
23.7405
23.7267
21.4962
21.4553
23.7364
23.7201
21.4036
23.7163
23.664
21.4438
21.4104
23.7096
23.67
24.578
27.0225
27.0317
24.5396
24.5723
27.0211
27.0287
24.5874
27.0344
27.0362
24.5765
24.584
27.0325
27.0349
24.5896
27.0375
27.0381
24.5851
24.5866
27.0361
27.0367
24.5882
27.0381
27.0375
24.5866
24.5851
27.0367
27.0361
24.5825
27.0362
27.0344
24.584
24.5765
27.0349
27.0325
24.5346
27.0317
27.0225
24.5723
24.5396
27.0287
27.0211
7.70449
7.95663
7.97364
7.69508
7.70518
7.96896
7.97549
7.70847
7.97475
7.97799
7.70539
7.70597
7.97576
7.97639
7.71384
7.97961
7.9839
7.70609
7.7062
7.97652
7.9766
7.71001
7.98361
7.9796
7.70622
7.70612
7.97662
7.97654
7.70513
7.97795
7.97483
7.70603
7.70547
7.97645
7.97585
7.68151
7.97367
7.9567
7.70522
7.69556
7.97557
7.96976
8.06751
8.35686
8.36358
8.06315
8.06985
8.36203
8.36724
8.07246
8.36462
8.36966
8.07009
8.07071
8.3674
8.36783
8.07853
8.37146
8.37623
8.07083
8.0709
8.36791
8.36786
8.07412
8.37576
8.37147
8.07093
8.07086
8.36788
8.36792
8.06877
8.36966
8.36476
8.07077
8.07014
8.36788
8.36738
8.05076
8.36365
8.35682
8.06988
8.06394
8.36719
8.36283
8.46745
8.79841
8.79832
8.46729
8.47205
8.80115
8.80306
8.47356
8.79872
8.80319
8.4721
8.47241
8.80314
8.80347
8.48027
8.80532
8.81046
8.47243
8.47213
8.80346
8.80294
8.47542
8.80955
8.80528
8.47215
8.47245
8.80297
8.80347
8.46838
8.80321
8.79942
8.47245
8.47208
8.80351
8.80314
8.46181
8.79881
8.79842
8.472
8.46806
8.80301
8.80084
8.91451
9.28363
9.28248
8.91719
8.91914
9.28759
9.28648
8.91898
9.28263
9.28585
8.91931
8.91964
9.28668
9.28718
8.92629
9.28724
9.29133
8.91961
8.91903
9.28708
9.28633
8.92088
9.28961
9.28711
8.91906
8.91962
9.28636
9.28709
8.91569
9.2858
9.28329
8.91968
8.91931
9.28723
9.28668
8.91421
9.28294
9.28358
8.9191
8.91721
9.28643
9.28753
9.41191
9.82942
9.82297
9.41638
9.41584
9.82784
9.82657
9.41489
9.82282
9.82436
9.41601
9.41648
9.82641
9.82662
9.4199
9.82524
9.82834
9.41635
9.4156
9.82643
9.82595
9.41602
9.82716
9.82501
9.41562
9.41637
9.82598
9.82646
9.41259
9.8242
9.82361
9.41653
9.41601
9.82668
9.82639
9.41445
9.82334
9.82935
9.4158
9.41641
9.82649
9.82751
9.9311
10.4403
10.4783
9.97349
9.97161
10.4389
10.4333
9.93344
10.4775
10.4702
9.97132
9.97127
10.4326
10.4316
9.9401
10.47
10.4744
9.97106
9.97075
10.4315
10.4314
9.93386
10.4746
10.4712
9.97078
9.97109
10.4314
10.4316
9.93155
10.4708
10.4772
9.97133
9.97127
10.4316
10.4325
9.97526
10.4779
10.4401
9.97151
9.97273
10.433
10.4363
10.5603
11.1309
11.17
10.6034
10.5969
11.129
11.1227
10.5516
11.1693
11.1589
10.596
10.5946
11.1202
11.116
10.5558
11.1588
11.1626
10.5945
10.5943
11.1153
11.1148
10.5526
11.1625
11.1591
10.5943
10.5945
11.1148
11.1148
10.5593
11.159
11.1687
10.5946
10.5957
11.1152
11.1188
10.6047
11.1694
11.1305
10.5967
10.6002
11.1206
11.1255
11.2627
11.9164
11.9611
11.3162
11.3108
11.9163
11.9111
11.2516
11.9577
11.9765
11.3078
11.3025
11.9093
11.902
11.2548
11.9768
11.9787
11.3017
11.3007
11.9011
11.8998
11.2513
11.98
11.977
11.3008
11.3002
11.8998
11.8968
11.2613
11.9767
11.9576
11.3005
11.3053
11.8969
11.9069
11.3172
11.961
11.9165
11.3075
11.3132
11.9102
11.9182
12.0683
12.824
12.8676
12.1305
12.1246
12.827
12.8218
12.0294
12.8663
12.8927
12.1236
12.1155
12.8209
12.8136
12.0311
12.8917
12.8862
12.1144
12.1127
12.8118
12.8022
12.0298
12.8862
12.8871
12.1127
12.111
12.8023
12.8116
12.0653
12.8879
12.8758
12.1115
12.1232
12.8133
12.823
12.1301
12.8774
12.8243
12.1256
12.1343
12.8248
12.8276
12.9911
13.8799
13.9505
13.0762
13.0735
13.8825
13.8786
12.9538
13.951
13.9806
13.0724
13.0651
13.8776
13.8742
12.9498
13.9808
13.9696
13.0635
13.0546
13.8722
13.869