/*--------------------------------*- C++ -*----------------------------------*\
| =========                 |                                                 |
| \\      /  F ield         | OpenFOAM: The Open Source CFD Toolbox           |
|  \\    /   O peration     | Version:  2206                                  |
|   \\  /    A nd           | Website:  www.openfoam.com                      |
|    \\/     M anipulation  |                                                 |
\*---------------------------------------------------------------------------*/
FoamFile
{
    version     2.0;
    format      ascii;
    arch        "LSB;label=32;scalar=64";
    class       volScalarField;
    location    "600";
    object      p;
}
// * * * * * * * * * * * * * * * * * * * * * * * * * * * * * * * * * * * * * //

dimensions      [0 2 -2 0 0 0 0];

internalField   nonuniform List<scalar> 
198968
(
-0.0104677
0.0282572
0.0480548
0.0765438
0.0772677
0.0490841
0.0294125
-0.00899687
-0.0881735
-0.0463212
-0.0421987
-0.0355132
-0.0285819
-0.0229136
-0.0258908
-0.0831024
-0.0771297
-0.0784707
-0.0772177
-0.0726104
-0.0645706
-0.0501208
-0.0332011
-0.0166354
-0.100737
-0.0998619
-0.0969762
-0.0925115
-0.0833792
-0.0668263
-0.0448857
-0.0208629
-0.112234
-0.110486
-0.106924
-0.102105
-0.0924711
-0.0753441
-0.0507862
-0.0231368
-0.118408
-0.112947
-0.105596
-0.0989671
-0.0895205
-0.072809
-0.0488662
-0.0212377
-0.124258
-0.10917
-0.0931532
-0.0818476
-0.0723034
-0.0581489
-0.0385119
-0.0159468
-0.132313
-0.105171
-0.0759495
-0.0564269
-0.0460838
-0.0376842
-0.0260651
-0.0095863
-0.155296
-0.121323
-0.0836974
-0.059723
-0.0498959
-0.0479942
-0.0399213
-0.018239
-0.207718
-0.179126
-0.152773
-0.139225
-0.135914
-0.133471
-0.113238
-0.0625952
-0.270153
-0.269036
-0.289823
-0.312112
-0.321732
-0.307708
-0.253293
-0.146819
-0.291016
-0.352715
-0.451114
-0.532541
-0.560716
-0.522925
-0.419171
-0.243851
-0.20714
-0.335662
-0.504306
-0.637515
-0.681653
-0.6236
-0.48708
-0.286808
-0.0128398
-0.156202
-0.315026
-0.432546
-0.473724
-0.435032
-0.341759
-0.213745
0.211669
0.122283
0.0435968
-0.00644464
-0.0298764
-0.0392338
-0.0418518
-0.0417076
0.369405
0.346592
0.346871
0.358599
0.35148
0.307571
0.227145
0.116706
0.426407
0.440402
0.485843
0.526545
0.529002
0.475992
0.367085
0.204812
0.392599
0.430756
0.49401
0.544229
0.552028
0.504646
0.399815
0.23209
0.331271
0.360399
0.432247
0.484182
0.494395
0.45683
0.37278
0.236859
0.180739
0.278176
0.350146
0.398073
0.407899
0.378217
0.31417
0.180861
-0.0248605
-0.0268383
-0.0317253
-0.0397453
-0.0451488
-0.0354863
-0.0176899
-0.00331882
-0.0625002
-0.0643699
-0.0706034
-0.085552
-0.0973786
-0.0696535
-0.0344784
-0.0088885
-0.0793587
-0.0827096
-0.0850595
-0.0976079
-0.107782
-0.0758698
-0.042735
-0.0128895
-0.0923359
-0.0966975
-0.103766
-0.112782
-0.112774
-0.0908992
-0.0615079
-0.0233177
-0.105765
-0.111429
-0.120898
-0.130983
-0.129131
-0.109533
-0.0760382
-0.0305354
-0.115105
-0.116165
-0.12453
-0.13636
-0.136175
-0.115833
-0.0807371
-0.0338895
-0.1227
-0.100318
-0.0953032
-0.102451
-0.10345
-0.0860184
-0.0593735
-0.0270167
-0.139477
-0.0618348
-0.0282217
-0.0218566
-0.0226369
-0.0172733
-0.0100419
-0.00581249
-0.108709
-0.0304619
0.0515423
0.112077
0.130494
0.104322
0.0584952
0.0287814
-0.163677
-0.07975
0.0174099
0.0916516
0.111712
0.0731553
0.0186591
-0.00434348
-0.292452
-0.246889
-0.200005
-0.16146
-0.150503
-0.173108
-0.181558
-0.125796
-0.435855
-0.514175
-0.635437
-0.724845
-0.747877
-0.689859
-0.560185
-0.332865
-0.452492
-0.702002
-1.05068
-1.34699
-1.42449
-1.23926
-0.897542
-0.500476
-0.229655
-0.52229
-0.881504
-1.18377
-1.2639
-1.08354
-0.769895
-0.431834
0.136588
-0.0220808
-0.145958
-0.207676
-0.223862
-0.218073
-0.17903
-0.118427
0.426549
0.410134
0.479536
0.563261
0.579864
0.490267
0.339722
0.173972
0.545979
0.589891
0.709969
0.822108
0.844249
0.746314
0.558892
0.306071
0.516154
0.585301
0.703737
0.79755
0.815233
0.736563
0.571615
0.317811
0.414515
0.493593
0.601701
0.680691
0.696102
0.636525
0.502697
0.286732
0.294747
0.390337
0.501933
0.573866
0.588417
0.541411
0.434609
0.265679
-0.025219
-0.0262594
-0.0304777
-0.0450317
-0.063081
-0.0510668
-0.0230491
-0.00428194
-0.062415
-0.0680745
-0.0854463
-0.139556
-0.226541
-0.146959
-0.0472668
0.000613807
-0.0483922
-0.104346
-0.0256911
-0.10157
-0.314556
-0.0809393
0.0272741
0.101226
-0.0464461
-0.0592751
-0.043245
-0.0398525
-0.0460982
-0.0287608
-0.016812
0.0205769
-0.0687954
-0.089749
-0.0859119
-0.0903559
-0.0904593
-0.0799329
-0.0570997
-0.00485675
-0.102827
-0.118966
-0.125866
-0.151434
-0.160001
-0.138966
-0.0969132
-0.0350483
-0.0982941
-0.103452
-0.115666
-0.15403
-0.175678
-0.138278
-0.0856201
-0.0497144
-0.609262
-0.0317957
0.0135226
0.0219767
0.00485194
0.0296155
0.0570576
-0.0657037
-0.13509
0.0557789
0.274359
0.425046
0.473622
0.407318
0.268924
0.140861
-0.212074
0.0603883
0.368532
0.608892
0.69698
0.568567
0.340183
0.165394
-0.453065
-0.152353
0.14664
0.437611
0.559122
0.382339
0.112708
-0.00594531
-0.781894
-0.688846
-0.738563
-0.675567
-0.621453
-0.681542
-0.705282
-0.476991
-0.922315
-1.31922
-2.16147
-2.98647
-3.28369
-2.80635
-1.93932
-1.06793
-0.525252
-1.25428
-2.40758
-3.66304
-4.20508
-3.36152
-2.12075
-1.10613
0.177796
-0.278427
-0.577193
-0.607396
-0.577636
-0.609641
-0.556356
-0.375438
0.729801
0.580698
0.871717
1.35042
1.56372
1.23826
0.753037
0.363615
1.111
0.809517
1.20528
1.59029
1.72575
1.50653
1.09234
0.708471
0.736453
0.837535
1.08888
1.32472
1.40733
1.27198
0.997624
0.54918
0.591813
0.674039
0.85319
1.01102
1.06352
0.980545
0.798669
0.43456
0.419118
0.549953
0.715306
0.824051
0.846613
0.775922
0.618953
0.374348
-0.0144132
-0.00904782
-0.0176239
-0.0699052
-0.130349
-0.092779
-0.0337212
-0.0073724
-0.0476187
-0.0350625
-0.0118374
-0.0459422
-0.0921517
-0.232349
-0.0809167
-0.000985832
-0.0452921
-0.199749
-0.257829
-1.14053
-4.53364
-0.935542
-0.16534
0.0941973
-0.0254302
-0.0221759
0.0362416
0.23542
0.329208
0.15647
0.0377828
0.04589
-0.0551638
-0.059228
-0.0311224
0.0206091
0.0879429
0.00796653
-0.0173695
0.0131317
-0.10926
-0.115906
-0.122982
-0.151414
-0.139048
-0.152621
-0.0983757
-0.0475339
-0.0862355
-0.108598
-0.174068
-0.34056
-0.444497
-0.317395
-0.13689
-0.0769312
-0.823106
-0.0124331
-0.0240715
-0.289902
-0.590544
-0.255922
0.0522885
-0.0837977
-0.126467
0.155781
0.57725
0.873678
1.07155
0.939423
0.606094
0.282756
-0.203049
0.276858
0.900666
1.5501
1.84936
1.48715
0.875605
0.425619
-0.544708
0.0599257
1.00843
2.39278
3.24506
2.27808
0.936566
0.284001
-1.17001
-0.870406
-0.16165
1.68188
3.37304
1.64904
-0.239417
-0.53115
-1.60247
-2.50124
-4.18853
-5.60875
-5.33637
-5.52277
-3.90223
-1.9648
-1.01799
-2.69497
-6.47465
-14.3829
-21.8973
-13.6682
-5.82458
-2.26612
0.315156
-0.280731
-0.690939
0.852909
3.75685
0.730582
-0.748406
-0.549556
1.18715
1.37758
2.59891
5.6499
7.55466
5.24661
2.3281
0.828956
1.64155
1.42788
2.4825
3.65194
4.11476
3.37872
2.18588
1.18935
0.992488
1.22486
1.70096
2.16689
2.32831
2.06378
1.53738
0.791618
0.750801
0.902503
1.17182
1.41182
1.48681
1.36474
1.08944
0.577008
0.520802
0.688607
0.903634
1.04634
1.07637
0.98351
0.780388
0.469123
0.0121173
0.035844
0.0858679
0.288997
0.327268
0.074614
0.0315649
0.0127374
0.0165251
0.112022
0.329687
0.443665
0.349016
0.269634
0.105077
0.0660241
0.0041785
-0.030372
0.522026
2.79222
5.92252
0.0854886
0.181965
0.184041
-0.00968031
0.0416849
0.0953746
-0.183819
-1.24225
-0.231343
0.0899253
0.0712582
-0.0501766
-0.00603556
0.0383109
0.11586
0.324477
0.0793245
0.0413873
0.0205223
-0.109779
-0.0693371
-0.0545164
-0.0530066
0.179974
-0.0746603
-0.0351842
-0.0540352
-0.0827669
-0.0690936
-0.138539
-0.458179
-0.436846
-0.357857
-0.0750172
-0.0958959
-0.852048
0.03385
0.0265719
-0.689031
-1.20742
-0.365623
0.164815
-0.0587539
-0.099802
0.251426
0.876404
0.639267
-21.4536
0.0613674
0.902181
0.372919
-0.178713
0.417264
1.28299
2.45366
2.33513
2.19622
1.22591
0.560475
-0.550672
0.230885
1.80626
4.99437
9.73215
4.58589
1.66135
0.447905
-1.31607
-0.843584
0.828904
7.93932
25.6806
7.94057
0.618847
-0.49698
-1.92954
-3.11881
-5.54264
-0.890476
63.6046
-2.3873
-5.15414
-2.42337
-1.26412
-3.61022
-11.2704
-51.1572
-45.3063
-9.65887
-2.93402
0.382033
-0.169803
0.504356
18.9997
135.185
16.0584
0.0836626
-0.532366
1.40264
1.82796
4.44106
11.733
17.6658
10.5695
3.88628
1.11799
1.84578
1.71823
3.14741
4.89959
5.58696
4.4821
2.72974
1.41639
1.05932
1.3857
1.97084
2.55706
2.7572
2.43113
1.76771
0.855733
0.787929
0.989719
1.29426
1.56913
1.65625
1.51477
1.20135
0.612192
0.54411
0.721266
0.948398
1.09974
1.13168
1.03315
0.818536
0.491333
0.0129067
0.0294425
0.0603704
0.0988234
0.124426
0.0736201
0.0434439
0.0195759
0.0149622
0.0783297
0.218709
0.383497
0.499428
0.281793
0.145567
0.0732124
0.0033869
-0.0149709
0.356692
0.77069
0.945517
0.492774
0.218401
0.159368
-0.0126559
0.0422628
0.0840884
0.145767
0.160073
0.132499
0.0797363
0.0481505
-0.0430149
0.019264
0.0653929
0.128029
0.165629
0.123831
0.0642733
0.00987486
-0.0886942
-0.0147945
0.032716
0.0846348
0.117899
0.0899387
0.0418653
-0.0334056
-0.0675933
0.00383857
0.0525754
0.0920335
0.118471
0.113172
0.0693347
-0.048863
-0.712258
0.0700364
0.229142
0.375086
0.438157
0.390088
0.269464
-0.0250339
-0.0986487
0.16053
0.626219
1.16664
1.38069
1.15587
0.63202
0.271706
-0.18637
0.23018
0.837942
1.44586
1.70841
1.38236
0.807385
0.371767
-0.523682
-0.0110394
0.85579
2.01225
2.65514
1.91803
0.79741
0.206637
-1.08619
-0.857591
-0.315821
1.32524
2.68879
1.27866
-0.333346
-0.529074
-1.44525
-2.19204
-3.84771
-5.47836
-5.56394
-5.32929
-3.56928
-1.72396
-0.911261
-2.27998
-5.66691
-12.9647
-19.0438
-12.284
-5.11294
-1.93836
0.261493
-0.299013
-0.764559
0.469036
2.6347
0.328967
-0.801683
-0.520765
1.05339
1.1605
2.2686
4.74997
6.14586
4.42853
2.03147
0.690957
1.50566
1.27072
2.14169
3.06399
3.41567
2.85088
1.89319
1.05809
0.863974
1.12813
1.5413
1.94051
2.08484
1.8492
1.38941
0.670159
0.675268
0.850786
1.09273
1.31468
1.38302
1.27071
1.01381
0.506797
0.474856
0.624448
0.816358
0.943085
0.969588
0.887182
0.705648
0.425113
0.00557747
0.0145464
0.0285754
0.0426558
0.0481995
0.0365734
0.0220625
0.00871525
0.00208165
0.0319225
0.0775055
0.13416
0.163581
0.10863
0.0615891
0.0225648
0.00497268
-0.00673987
-0.00181153
-0.0309392
-0.0450729
-0.0104602
0.0183861
0.0259797
0.00636122
0.0306571
0.0619135
0.0846457
0.0912248
0.0840852
0.0622491
0.0301545
-0.00831993
0.0272455
0.0713955
0.108269
0.121765
0.104625
0.0732208
0.0337963
-0.0350708
0.00722567
0.0613441
0.105525
0.121666
0.104243
0.0718063
0.0351545
-0.0620805
-0.00154537
0.0691447
0.122603
0.140699
0.122327
0.0872492
0.0535153
-0.179054
-0.00682119
0.179109
0.299048
0.331695
0.271036
0.170975
0.117167
-0.00907856
0.0823046
0.243674
0.386097
0.436494
0.367972
0.236154
0.133919
-0.0471235
0.0600325
0.265648
0.462625
0.530446
0.428807
0.24403
0.0781891
-0.250274
-0.140587
0.0232653
0.214697
0.290036
0.187729
0.00901049
-0.115698
-0.552014
-0.597705
-0.706472
-0.724554
-0.705113
-0.707422
-0.659826
-0.52485
-0.718511
-1.09255
-1.73276
-2.33503
-2.54306
-2.19058
-1.55334
-0.947235
-0.495381
-1.03212
-1.83155
-2.65253
-2.97993
-2.45856
-1.62367
-0.88833
0.0195687
-0.271631
-0.474282
-0.564393
-0.576828
-0.5531
-0.452011
-0.24048
0.466229
0.43438
0.680555
0.980968
1.10613
0.904527
0.590534
0.394701
0.61274
0.834424
1.02115
1.30127
1.40399
1.24312
0.929528
0.437772
0.57203
0.662564
0.826792
0.962865
0.992904
0.884835
0.6724
0.37581
0.469984
0.551812
0.682172
0.780617
0.800679
0.727593
0.570109
0.323005
0.348575
0.452586
0.580039
0.664744
0.682085
0.626195
0.501518
0.306714
-0.00692889
0.0300116
0.0492032
0.0767276
0.0779808
0.0522824
0.0325978
-0.00385627
-0.0734176
0.0227037
0.0254667
0.0319524
0.036206
0.0284422
0.0102934
-0.0648782
-0.00244832
0.0100774
0.0190369
0.0228625
0.0242063
0.0249228
0.0179427
-0.0097713
0.00458974
0.013577
0.0267875
0.0361022
0.0400942
0.0387068
0.0297174
0.0131228
-0.000495841
0.0115455
0.0284418
0.0428396
0.0493654
0.0463823
0.0359994
0.0193054
-0.00891716
0.00588676
0.0279568
0.0463905
0.0543177
0.050713
0.0391978
0.0227164
-0.0182932
0.00447874
0.0357278
0.0594831
0.0684062
0.0625266
0.0477458
0.0294015
-0.0260893
0.0135142
0.0584568
0.0892658
0.0992997
0.0875396
0.0618044
0.0377713
-0.0187561
0.0227379
0.0738337
0.112179
0.125435
0.109826
0.0760812
0.0387573
-0.0720234
-0.0205712
0.0360972
0.0794075
0.0944804
0.0788012
0.0478954
0.0212738
-0.181215
-0.138483
-0.108564
-0.0850649
-0.0744714
-0.0768791
-0.0741787
-0.0488157
-0.30256
-0.316077
-0.368159
-0.410133
-0.41601
-0.378517
-0.296634
-0.171222
-0.339084
-0.443898
-0.608503
-0.741999
-0.773618
-0.679921
-0.501917
-0.279463
-0.219151
-0.37213
-0.560913
-0.708197
-0.744387
-0.650117
-0.472712
-0.266548
-0.00332643
-0.114143
-0.205068
-0.257978
-0.271436
-0.250544
-0.196268
-0.11732
0.18237
0.139811
0.139993
0.157259
0.158451
0.129386
0.0850348
0.039201
0.274989
0.275231
0.313282
0.352173
0.357091
0.313639
0.231454
0.125087
0.284144
0.308053
0.355604
0.397295
0.404162
0.364014
0.279917
0.154081
0.263121
0.271992
0.329672
0.372599
0.38066
0.348862
0.27856
0.154898
0.180776
0.249597
0.310937
0.35285
0.361415
0.334201
0.276105
0.180907
-0.0159995
-0.0840975
-0.041058
0.0594679
0.0986296
0.0451272
0.0888459
-0.0255012
-0.0734598
-0.0581283
0.109559
0.159688
0.0942155
0.158594
-0.0430179
-0.0727359
-0.0692068
0.178145
0.195026
0.166275
0.205495
-0.0384121
-0.071387
-0.072885
0.192009
0.184107
0.202952
0.16684
-0.0421174
-0.0622494
-0.0738463
0.160042
0.11194
0.155314
0.0936636
-0.0560963
-0.0443279
-0.0831139
0.0969325
0.062656
0.0855987
0.0469175
-0.0533332
-0.11334
-0.0782081
0.0364337
0.0833204
0.00954853
0.0649974
-0.0755152
-0.113325
-0.112854
0.0884781
0.151786
0.0602711
0.124119
-0.0885673
-0.130915
-0.135137
0.157609
0.197617
0.122299
0.157733
-0.0913291
-0.136686
-0.134619
0.195282
0.156746
0.156052
0.11649
-0.0872104
-0.119143
-0.117213
0.14763
0.0866538
0.117099
0.0547835
-0.0894185
-0.0837181
-0.113824
0.079283
0.0377711
0.0587417
0.0105455
-0.090793
-0.11341
-0.0823445
-0.000751821
0.0580683
0.00288155
0.0649114
-0.131933
-0.118972
-0.128583
0.0521538
0.115937
0.0503375
0.110399
-0.158557
-0.152985
-0.169042
0.109424
0.142335
0.0900719
0.110484
-0.156361
-0.170654
-0.160795
0.140539
0.101711
0.107071
0.0788769
-0.130896
-0.138262
-0.12593
0.107652
0.0454739
0.0987626
0.042165
-0.120256
-0.089675
-0.114144
0.0508912
-0.000391638
0.0567639
0.00433037
-0.078033
-0.00298849
0.019963
0.00952644
0.0777475
0.136742
0.195945
-0.127536
-0.0284336
-0.0131004
0.0615086
0.126368
0.158426
0.276261
-0.173806
-0.0357259
-0.0529078
0.102012
0.124254
0.25777
0.290212
-0.163076
-0.0552098
-0.0458987
0.120624
0.0903629
0.287397
0.250344
-0.123289
-0.0244308
-0.0339141
0.114667
0.0538065
0.270131
0.157349
-0.104849
0.0144645
-0.00319779
0.0697831
0.0106783
0.192616
0.140295
0.0610158
0.030824
0.221301
0.0616803
0.255696
0.113315
0.543369
0.0410078
0.221833
0.330025
0.219035
0.374111
0.574736
0.954493
0.00771026
0.346542
0.38178
0.370571
0.427141
1.05811
1.21909
0.0118174
0.3817
0.348641
0.426341
0.369141
1.23023
1.12227
0.00935887
0.332902
0.228622
0.374416
0.222839
1.0091
0.608473
-0.0285498
0.227982
0.0407475
0.255785
0.068738
0.567168
0.13146
0.259606
0.0733415
0.329245
0.142164
0.570531
0.214108
0.734919
0.400752
0.363031
0.53781
0.589517
1.0703
0.780817
1.25412
0.472958
0.58105
0.658146
1.09667
1.28749
1.31576
1.53322
0.430756
0.659234
0.588847
1.28656
1.11161
1.53226
1.32253
0.283875
0.546939
0.374433
1.08698
0.615289
1.26022
0.795916
0.0664799
0.340564
0.0850632
0.594619
0.161902
0.750181
0.234816
0.328688
-0.0700321
0.198335
0.213721
0.765286
0.0834021
0.787154
0.559352
0.248377
0.473043
0.814785
1.33957
0.882992
1.83348
0.695793
0.539635
0.654257
1.40666
1.65408
1.96853
2.53669
0.616769
0.655893
0.549873
1.65274
1.40896
2.53993
1.99864
0.380094
0.484569
0.262321
1.34193
0.829807
1.86477
0.919884
0.0722151
0.21188
-0.0571531
0.780001
0.234432
0.822441
0.106964
0.098132
-0.523374
-0.451625
-0.0183572
0.747786
-0.577616
-0.145783
0.368883
-0.43749
-0.310834
0.8485
1.86695
-0.0464765
1.32882
0.557142
-0.265508
-0.181424
2.01125
2.64877
1.47975
2.84041
0.449974
-0.178966
-0.249787
2.65414
2.05762
2.84724
1.58959
0.161778
-0.29378
-0.419272
1.9118
0.892626
1.43567
0.0216839
-0.137861
-0.433929
-0.507885
0.790173
0.00850524
-0.0822407
-0.544486
-0.723401
-1.18769
-1.66628
-0.861732
-0.397902
-1.88085
-3.1412
-0.698892
-1.81988
-2.27141
-0.31847
1.18435
-3.35222
-4.66485
-0.623788
-2.3807
-2.5478
1.33621
2.73113
-4.72162
-4.50574
-0.658862
-2.5502
-2.36011
2.73828
1.45101
-4.50632
-4.69418
-0.720251
-2.25949
-1.80433
1.29584
-0.250539
-4.63032
-3.27658
-0.672126
-1.65116
-1.17397
-0.334615
-0.827062
-3.07779
-1.85441
-1.95318
-1.37224
-2.27191
-2.1935
-3.60603
-2.49624
-5.3065
-2.81476
-2.56693
-3.59059
-3.88004
-5.35252
-5.86565
-12.4191
-3.27923
-3.90004
-4.46551
-5.46403
-5.56676
-13.084
-19.1232
-2.97368
-4.46622
-3.88829
-5.56801
-5.44013
-19.1223
-13.0635
-2.14712
-3.5821
-2.55558
-5.33258
-3.81733
-12.3976
-5.84232
-1.3065
-2.26088
-1.3618
-3.5567
-2.17034
-5.28364
-2.47774
-2.13133
-0.55218
-1.02014
-2.28075
-5.13689
-0.846049
-1.4324
-3.37037
-1.10735
-1.39039
-5.6682
-12.3088
-1.44816
-0.49305
-4.1966
-1.45664
-1.569
-12.9703
-19.0454
-0.333181
1.54598
-3.64618
-1.57194
-1.45145
-19.0443
-12.9474
1.54929
-0.30964
-2.39679
-1.38365
-1.09827
-12.2861
-5.64462
-0.468781
-1.42647
-1.24446
-1.01107
-0.544185
-5.11406
-2.26345
-1.41183
-0.831355
-0.564756
0.42063
0.52317
-0.299225
-0.81954
0.940245
1.88453
-0.616303
0.634213
0.964602
-0.763995
0.274812
2.14499
4.43624
-0.574781
1.07701
1.28966
0.469665
2.63637
4.80942
6.49408
-0.602289
1.29017
1.08088
2.64136
0.492282
6.49488
4.81836
-0.568842
0.969352
0.640473
0.298168
-0.743332
4.44613
2.15266
-0.27104
0.530041
0.425531
-0.799927
-0.285691
1.88974
0.949883
0.746532
0.810669
1.07114
1.16031
2.02133
1.34086
2.17974
1.23422
1.19078
1.51976
2.27177
4.4187
2.30523
3.38013
1.56313
1.61634
1.77536
4.75178
6.23001
3.49839
4.05905
1.35372
1.77582
1.61824
6.23075
4.76
4.05929
3.50206
0.877355
1.52209
1.19375
4.42765
2.28038
3.38406
2.31034
0.585806
1.07435
0.813607
2.02694
1.16857
2.18482
1.34538
1.08971
0.864673
1.0266
1.27081
1.88922
1.19987
1.51104
1.50461
1.12711
1.32467
2.14198
2.84971
1.68589
2.05541
1.72552
1.38268
1.47219
3.07029
3.42102
2.17085
2.34589
1.59185
1.47207
1.38355
3.42146
3.07298
2.34611
2.17221
1.20779
1.32577
1.12859
2.85296
2.14609
2.05708
1.6881
0.811992
1.02813
0.866175
1.89336
1.27456
1.51329
1.20203
0.996322
0.681185
0.821745
1.12806
1.38762
0.879826
1.0822
1.27106
0.886543
1.02097
1.54133
1.84824
1.17885
1.37818
1.4074
1.05562
1.11131
1.94194
2.08554
1.43222
1.51171
1.32542
1.11137
1.05601
2.08571
1.94302
1.5118
1.43279
1.09015
1.02149
0.887264
1.84958
1.54313
1.3789
1.17983
0.838828
0.822491
0.681934
1.38944
1.12985
1.0832
0.880826
0.798025
0.611447
0.667128
0.850573
1.01293
0.698668
0.768765
0.980104
0.782593
0.844408
1.09268
1.27012
0.90267
0.976495
1.06348
0.90119
0.925919
1.31476
1.38314
1.04332
1.07257
1.01136
0.925992
0.901386
1.38321
1.31524
1.07266
1.04356
0.853811
0.844734
0.783007
1.27071
1.0935
0.976879
0.903156
0.6747
0.667562
0.611909
1.01378
0.851435
0.769276
0.699208
0.0365549
-0.0484906
0.00775761
0.0589117
0.110362
0.0238579
0.0808376
0.157666
-0.00862945
0.0546902
0.120516
-0.146037
0.0789762
0.131589
0.333933
0.0602962
0.132957
-0.155599
-1.12174
0.150619
0.296611
0.244363
0.132733
0.0541444
-1.10785
-0.204526
0.278013
0.129781
0.0411489
0.0445785
-0.010784
-0.194628
0.118781
0.109915
0.0709954
-0.0184945
0.00185975
-0.046467
0.10494
0.061918
0.0706295
0.023056
-0.00976034
-0.102213
-0.0656434
0.0124159
0.0664323
-0.0349582
0.013607
0.0200282
-0.100429
-0.0896115
0.0612295
0.122222
-0.00704443
0.0284619
0.0879019
-0.105337
-0.072833
0.148009
0.339804
0.0412932
0.245756
0.0114406
-0.0728904
-0.127295
0.322551
0.128272
0.238342
-0.0163021
-0.0359656
-0.108734
-0.114371
0.0984865
0.0502655
-0.00149561
-0.0313298
-0.0581176
-0.0783295
-0.10423
0.0544807
0.0108374
-0.00471528
-0.0405343
-0.0833527
-0.11677
-0.11456
-0.0533771
-0.00653762
-0.0655754
-0.0489769
-0.129459
-0.170601
-0.245966
-0.0350571
-0.02431
-0.118531
-0.236859
-0.138699
-0.300382
-0.360121
-0.0205633
0.169502
-0.330494
-0.293764
-0.179032
-0.364238
-0.348865
0.157803
-0.0962949
-0.337367
-0.465408
-0.140698
-0.284823
-0.200349
-0.0589443
-0.065127
-0.301284
-0.168061
-0.119605
-0.137685
-0.123074
-0.0277862
-0.0603138
-0.0821415
-0.075006
-0.110874
0.0378995
0.0059675
-0.0617237
-0.0478847
0.109339
0.0830332
-0.272482
-0.0969445
-0.255075
-0.135924
-0.304014
-0.081726
-0.368102
-0.440311
-0.364316
-0.611573
-0.454941
-0.504293
-0.713868
-1.18491
-0.398552
-0.61803
-0.461792
-0.559692
-0.619016
-1.24653
-1.00893
-0.208239
-0.325146
-0.140304
-0.382138
-0.191913
-0.504975
-0.152577
-0.116843
-0.0254704
0.0291841
-0.0853331
-0.0723472
0.0356689
0.101711
0.08215
0.0991074
0.464714
0.0293166
0.176921
0.183622
0.742708
-0.178651
0.472577
0.517633
-0.000374425
-0.330493
0.851499
1.24014
-0.585014
0.418722
0.487685
-0.761058
-1.54938
-1.21597
-2.75372
-0.399892
0.44158
0.308465
-1.58501
-1.16603
-2.85971
-2.55957
-0.0668276
0.456095
0.47038
-0.478687
-0.0675116
1.01564
0.921841
-0.0141088
0.472741
0.117667
0.12933
0.0270181
0.790051
0.211314
0.580181
0.267127
0.816547
0.245647
0.823135
0.390492
1.12912
0.908169
0.858066
1.37151
0.856783
0.571084
1.19747
1.98881
1.07387
1.43634
1.70191
0.474479
-22.0656
2.16973
2.15703
0.905384
1.69457
1.45674
-23.3621
0.0681343
1.77615
2.21595
0.602923
1.38636
0.880558
-0.0148642
0.932681
2.00355
1.21973
0.177794
0.838747
0.288827
0.883597
0.276513
1.15221
0.41721
0.853512
0.163888
0.922076
0.414772
1.20106
0.332939
1.56385
1.47569
1.03422
2.13964
1.28199
2.23585
1.77821
4.26192
1.85446
2.31162
3.04615
2.44249
2.72862
4.67598
8.94116
1.56475
3.05626
2.36992
2.24462
2.38823
8.38375
4.64224
0.922901
2.19535
1.08016
2.17922
1.30012
4.18541
1.84972
0.298384
0.964684
0.191555
1.22084
0.440025
1.6327
0.36878
0.888
-0.548742
-0.0392468
0.229957
1.57276
-0.449501
0.768764
2.20507
0.124712
1.65217
1.80887
4.57609
1.14035
7.0332
3.23215
1.81885
3.46133
5.0427
10.4991
7.74718
23.7695
2.46675
3.46914
1.95329
9.93914
5.15179
24.0291
8.60193
1.0614
1.7857
0.208574
4.6002
1.90295
7.80638
1.34057
0.0923857
0.0353933
-0.505724
1.66049
0.274741
0.935817
-0.38418
-0.313351
-2.10125
-3.39706
-0.844023
0.455852
-2.51471
-4.18372
1.51157
-3.56072
-4.77268
0.830006
7.17454
-4.35618
-0.237362
3.3652
-4.77688
-4.19187
7.93722
25.496
1.18778
64.0293
1.82326
-4.19276
-4.74095
25.7651
8.78379
63.5629
1.01541
-0.0792455
-4.72774
-3.49449
7.93769
1.02912
-0.358055
-4.29317
-0.827161
-3.34166
-2.06951
0.619057
-0.779161
-4.12416
-2.47107
-3.94806
-2.94267
-6.03372
-3.11878
-5.19945
-3.93132
-9.95026
-5.55421
-6.68212
-13.8483
-5.54329
-2.21794
-11.5574
-45.0703
-5.33429
-14.5282
-22.0141
-0.893271
63.953
-50.4133
-188.738
-5.58017
-22.0117
-14.504
63.4812
-1.12956
-188.312
-50.2502
-4.1274
-13.8245
-6.6573
-2.3914
-5.49859
-44.9345
-11.5153
-2.47376
-6.00924
-2.92159
-5.15444
-3.0833
-9.91476
-3.90175
-5.84958
-0.942311
-1.47808
-3.60943
-9.69821
-1.10104
-1.1471
-13.6964
-1.48516
-0.149313
-11.2742
-45.4494
-0.874087
14.4002
-21.8991
-0.0115613
2.57483
-51.1586
17.6048
163.497
-14.3502
2.58038
0.0156556
-50.98
163.505
17.6845
-6.44905
-0.121508
-1.45985
-45.2974
-11.2264
14.4717
-0.828539
-2.67511
-1.45398
-0.924616
-9.66059
-3.58377
-1.10455
-1.07725
-0.771136
1.14718
2.19547
-0.169963
0.0459444
1.59281
3.83128
0.703971
2.48095
5.36547
0.505102
15.9863
4.46643
11.6569
3.7497
5.83625
8.05625
19.0234
135.191
13.1088
20.9945
0.878861
8.05681
5.84739
135.198
19.098
20.9961
13.1274
-0.66718
5.37729
2.48267
16.0586
0.546564
11.6763
4.48652
-0.264511
2.19687
1.15928
0.0831199
-0.148399
3.85103
1.60689
2.32317
1.52183
2.30793
1.82854
3.87002
1.86395
3.11432
5.2362
2.43461
3.62011
4.44095
10.5583
3.31854
5.32874
7.55376
3.74344
4.38059
11.7371
17.6649
5.55784
6.70023
5.65974
4.38082
3.74731
17.6661
11.7527
6.70054
5.5632
2.60456
3.62425
2.43999
10.575
4.45775
5.33445
3.32559
1.38788
2.3133
1.52723
3.88623
1.83942
3.12133
1.87032
2.18121
1.30232
1.68605
1.71815
2.72375
1.4915
1.97083
3.37501
1.87786
2.32086
3.14678
4.47491
2.21402
2.79843
4.11427
2.45309
2.65735
4.89855
5.59214
2.96653
3.2254
3.65504
2.65759
2.4546
5.59274
4.9024
3.22567
2.96831
2.48717
2.3227
1.88031
4.47957
3.15255
2.80059
2.21691
1.4323
1.68853
1.30469
2.72947
1.72314
1.97373
1.49423
1.53538
0.940005
1.17368
1.3857
1.76536
1.03525
1.30606
2.06231
1.27575
1.49519
1.97082
2.42944
1.42301
1.67577
2.32812
1.55308
1.64066
2.55713
2.75717
1.74325
1.84681
2.16808
1.64076
1.5537
2.75739
2.55851
1.84692
1.74396
1.70294
1.49596
1.27681
2.43114
1.97312
1.67665
1.42421
1.2268
1.17477
0.941066
1.76769
1.38796
1.30729
1.03647
1.08853
0.777417
0.860128
0.98974
1.20033
0.817644
0.906772
1.3641
1.01042
1.09522
1.29427
1.51406
1.06582
1.15691
1.48673
1.1714
1.20534
1.56915
1.65619
1.23835
1.2749
1.41234
1.20544
1.17168
1.65628
1.56973
1.27501
1.23865
1.1727
1.09566
1.01097
1.51478
1.29525
1.15737
1.06641
0.903417
0.8607
0.77802
1.20135
0.99078
0.907388
0.818294
0.08822
0.00573731
0.061429
-0.0149179
0.0463598
-0.0371322
0.0176682
-0.182044
0.0565866
0.103248
0.0466032
0.162562
0.00426504
0.0638634
-1.24348
0.120368
0.264917
0.240962
0.340379
0.0703592
0.1355
-0.251537
0.258433
0.10094
0.337044
0.251166
0.133113
0.0626689
0.100438
0.0903235
0.0544221
0.163232
0.0437114
0.05289
-0.00383777
0.0517978
0.0574319
0.0118486
0.0391766
-0.0156701
0.00925167
-0.0408754
0.0468936
-0.0522153
-0.00413931
-0.0476102
0.00105948
-0.0888869
-0.0539478
0.0939122
-0.0283268
-0.000927679
-0.0170369
0.0303101
-0.0861413
-0.0809367
0.315231
0.00683784
0.235737
0.0312485
0.0888812
-0.0983893
-0.0841963
0.100234
0.234085
-0.0524263
0.0870621
0.0198613
-0.0847771
-0.125709
0.033563
-0.0207334
-0.044592
0.0168152
-0.0282902
-0.102725
-0.108094
-0.000730355
-0.0144059
-0.049726
-0.00908846
-0.0525909
-0.0701568
-0.0977342
-0.0224431
-0.07546
-0.0547141
-0.103143
-0.0719899
-0.104783
-0.104403
-0.0509319
-0.126859
-0.240016
-0.109203
-0.122562
-0.159966
-0.24628
0.168166
-0.347459
-0.230344
-0.146982
-0.156169
-0.304419
-0.397489
-0.131013
-0.256904
-0.486131
-0.155527
-0.180815
-0.396746
-0.365659
-0.0759301
-0.291352
-0.162657
-0.148126
-0.135273
-0.287948
-0.20023
-0.0683003
-0.0775294
-0.0757298
-0.0905556
-0.113628
-0.13206
-0.117388
-0.0484749
0.107972
0.0991238
-0.0975079
-0.100953
0.0493277
0.0194016
-0.293433
-0.0627399
-0.301629
-0.164001
-0.274916
-0.0825228
-0.248348
-0.409321
-0.651143
-0.917842
-0.347147
-0.483178
-0.357052
-0.636989
-0.619548
-0.942635
-0.906051
-0.480433
-0.420809
-0.633902
-0.475379
-0.178097
-0.416421
-0.109104
-0.323162
-0.209834
-0.320303
-0.137402
-0.0708552
0.0651943
0.109153
-0.13249
-0.111703
-0.0185652
0.0368609
0.198067
0.191749
0.782693
0.000225633
0.0983313
0.118982
0.5014
-0.243739
0.921573
1.66127
-0.00551978
-0.16154
0.514468
0.59379
-1.206
-0.730171
-1.69211
-0.26854
-0.597696
0.529797
0.90785
-1.03722
-1.91329
-1.84045
-0.596058
-0.402112
0.896164
0.450491
-0.0149178
1.55894
1.03607
-0.241272
-0.0588707
0.557485
0.513684
0.0376409
0.852494
0.222173
0.0619435
-0.00447527
0.505617
0.136102
0.8364
0.393465
1.13166
0.176101
0.613287
0.282798
0.839564
0.658455
1.19969
2.00287
0.614135
0.986984
0.883051
1.4145
-20.1765
2.18792
2.26233
0.967381
1.2655
1.48171
1.7594
0.270738
1.86632
2.24793
1.25304
0.988074
1.74306
1.49745
0.96228
2.02631
1.22583
1.00036
0.641155
1.42434
0.906002
0.283675
1.15789
0.420524
0.63941
0.198246
0.862109
0.304788
1.20268
0.334212
1.56262
0.29097
0.874766
0.171741
0.92901
2.24213
1.77556
4.23079
0.923955
1.5155
1.04173
2.1493
2.82179
4.62657
8.70994
1.59123
1.89738
2.32294
3.07229
2.40996
8.13971
4.61554
1.8834
1.59893
3.08345
2.36819
1.30536
4.17145
1.85036
1.52091
0.946276
2.19887
1.08913
0.442781
1.6338
0.370347
0.897278
0.31266
0.973401
0.20072
1.5715
-0.449178
0.768209
0.0659384
0.892677
-0.545772
-0.040721
4.5472
1.1391
7.03488
1.01355
2.21085
0.125166
1.63309
10.2733
7.74938
23.6612
2.39849
3.24395
1.79729
3.48717
5.12443
23.9406
8.60455
3.25953
2.4611
3.42266
1.93202
1.90322
7.80876
1.33987
2.2768
1.0684
1.76443
0.209336
0.275999
0.935508
-0.383577
0.943738
0.0997821
0.0373435
-0.5016
0.455417
-2.51449
-4.18499
-0.86727
-0.314014
-2.09964
-3.37832
7.17652
-4.35571
-0.234577
-0.160367
1.48757
-3.53173
-4.82022
25.3807
1.19197
64.101
1.65784
3.4142
-4.82477
-4.16632
8.78704
63.6203
1.02271
3.32851
1.79446
-4.17417
-4.6926
1.02847
-0.352689
-4.29308
1.62316
-0.0777586
-4.69539
-3.51483
-0.778593
-4.12389
-2.47051
-0.237578
-0.823647
-3.35211
-2.06634
-5.201
-3.92812
-9.94993
-2.49991
-3.93386
-2.9417
-6.03165
-2.21647
-11.5528
-45.0699
-4.15965
-5.54126
-6.67722
-13.8534
64.0946
-50.4129
-188.93
-5.5942
-5.29939
-14.5265
-22.0147
-1.12356
-188.502
-50.2575
-5.31748
-5.51389
-22.0143
-14.5
-5.49847
-44.9426
-11.5136
-5.46727
-4.14964
-13.8263
-6.65271
-3.08291
-9.91121
-3.9031
-3.90889
-2.47066
-6.00776
-2.92004
-9.69995
-1.10095
-1.14557
-2.69473
-5.84811
-0.941969
-1.47754
-45.4515
-0.874399
14.3676
-6.47084
-13.7043
-1.48618
-0.169217
17.5719
163.487
-14.3825
-21.9002
-0.0257938
2.57691
-50.9865
163.494
17.6843
-21.8992
-14.3515
2.57562
0.00337515
-11.2258
14.4714
-0.829376
-13.6717
-6.44539
-0.109208
-1.46048
-3.58513
-1.10664
-1.07705
-5.82349
-2.67333
-1.45358
-0.924488
0.0450345
1.59328
3.83293
-0.280425
-0.771214
1.14865
2.18473
15.9518
4.46757
11.6535
-0.692002
0.698093
2.47029
5.36342
135.179
13.109
21.0001
0.847045
3.75365
5.83466
7.94697
19.0976
21.0018
13.1278
3.75053
0.868799
7.94689
5.84573
0.546526
11.6732
4.48523
0.742827
-0.667528
5.37581
2.49471
-0.148435
3.84953
1.60671
-0.748402
-0.264441
2.20876
1.15803
3.87022
1.86413
3.11483
1.37887
2.31755
1.52213
2.30758
10.5529
3.31913
5.32572
2.59436
5.23629
2.43421
3.62106
17.6646
5.55436
6.69938
5.65075
7.46576
3.74554
4.37651
11.7482
6.69967
5.55932
7.46605
5.65892
4.37673
3.74948
4.4576
5.33119
3.32615
5.24572
2.61219
3.62529
2.43966
1.83997
3.12181
1.87016
2.33565
1.38676
2.31304
1.5271
2.72402
1.49153