# Force and moment coefficients
# dragDir     : (0.000000e+00 1.000000e+00 0.000000e+00)
# sideDir     : (-1.000000e+00 0.000000e+00 0.000000e+00)
# liftDir     : (0.000000e+00 0.000000e+00 1.000000e+00)
# rollAxis    : (0.000000e+00 1.000000e+00 0.000000e+00)
# pitchAxis   : (-1.000000e+00 0.000000e+00 0.000000e+00)
# yawAxis     : (0.000000e+00 0.000000e+00 1.000000e+00)
# magUInf     : 4.200000e+01
# lRef        : 1.000000e+00
# Aref        : 3.140000e+00
# CofR        : (0.000000e+00 0.000000e+00 0.000000e+00)
#
# Time        	Cd            	Cd(f)         	Cd(r)         	Cl            	Cl(f)         	Cl(r)         	CmPitch       	CmRoll        	CmYaw         	Cs            	Cs(f)         	Cs(r)         
200           	-4.112640e-01	-2.056319e-01	-2.056321e-01	-3.940805e-03	-1.960873e-03	-1.979932e-03	9.529756e-06	1.062730e-07	7.507262e-07	3.109138e-03	1.555320e-03	1.553818e-03
400           	-3.408317e-01	-1.704156e-01	-1.704160e-01	-8.588939e-04	-4.266067e-04	-4.322872e-04	2.840256e-06	2.035665e-07	1.633069e-06	1.880643e-03	9.419546e-04	9.386885e-04
600           	-3.339614e-01	-1.669807e-01	-1.669807e-01	7.564394e-05	3.779545e-05	3.784849e-05	-2.652203e-08	3.546408e-08	2.185897e-06	1.203682e-03	6.040267e-04	5.996549e-04
