/*--------------------------------*- C++ -*----------------------------------*\
| =========                 |                                                 |
| \\      /  F ield         | OpenFOAM: The Open Source CFD Toolbox           |
|  \\    /   O peration     | Version:  2206                                  |
|   \\  /    A nd           | Website:  www.openfoam.com                      |
|    \\/     M anipulation  |                                                 |
\*---------------------------------------------------------------------------*/
FoamFile
{
    version     2.0;
    format      ascii;
    arch        "LSB;label=32;scalar=64";
    class       volScalarField;
    location    "800";
    object      k;
}
// * * * * * * * * * * * * * * * * * * * * * * * * * * * * * * * * * * * * * //

dimensions      [0 2 -2 0 0 0 0];

internalField   nonuniform List<scalar> 
187974
(
0.317477
0.297973
0.295239
0.289292
0.289349
0.295425
0.297699
0.318873
0.335947
0.312318
0.312508
0.310819
0.310763
0.312497
0.311949
0.337612
0.347079
0.326046
0.327509
0.325785
0.325819
0.32729
0.32524
0.348949
0.359174
0.345525
0.346625
0.34486
0.34488
0.346403
0.344647
0.361333
0.375225
0.365971
0.367226
0.365705
0.365739
0.367103
0.365026
0.377663
0.393463
0.386682
0.387837
0.388021
0.388067
0.387968
0.385809
0.396085
0.413665
0.406758
0.408093
0.410597
0.410648
0.408323
0.405859
0.416202
0.436443
0.429963
0.431587
0.432737
0.432788
0.431766
0.428894
0.439604
0.461396
0.457539
0.458532
0.458504
0.458546
0.458671
0.45622
0.466197
0.490493
0.487659
0.488465
0.48885
0.488852
0.488654
0.486006
0.49486
0.525947
0.52218
0.523849
0.524324
0.524321
0.523929
0.521317
0.529841
0.565116
0.562878
0.564417
0.565048
0.565031
0.564374
0.560953
0.570542
0.615564
0.612422
0.612105
0.612033
0.612026
0.612138
0.61035
0.621623
0.674399
0.670697
0.670894
0.671117
0.671145
0.671056
0.668514
0.681022
0.745139
0.741043
0.74132
0.741454
0.741499
0.741452
0.739225
0.750987
0.831414
0.827129
0.827332
0.827401
0.82741
0.827386
0.827592
0.831099
0.93423
0.934871
0.934906
0.934876
0.934873
0.934899
0.935008
0.936208
1.07348
1.07275
1.07287
1.07291
1.07291
1.07287
1.07276
1.07319
1.25494
1.25422
1.25428
1.25429
1.25429
1.25428
1.25421
1.25501
1.49598
1.4954
1.49542
1.49544
1.49544
1.49542
1.49539
1.496
0.308066
0.284206
0.287652
0.289406
0.289385
0.28754
0.28374
0.307397
0.330492
0.307349
0.309428
0.310027
0.310042
0.309363
0.30702
0.329211
0.354976
0.316301
0.318693
0.31955
0.319547
0.31879
0.31649
0.295117
0.376969
0.335755
0.335608
0.335752
0.335759
0.335618
0.335789
0.322741
0.399456
0.351074
0.351309
0.352666
0.352615
0.351106
0.351653
0.344535
0.424379
0.366935
0.36751
0.368394
0.368056
0.366074
0.367981
0.365086
0.447122
0.38963
0.390384
0.385029
0.384383
0.387189
0.390481
0.387855
0.466738
0.415839
0.415869
0.410532
0.41012
0.412779
0.416541
0.414056
0.487598
0.444062
0.443327
0.440983
0.441019
0.440837
0.444236
0.441534
0.512199
0.474649
0.475642
0.475487
0.475393
0.475348
0.475223
0.472139
0.537721
0.511701
0.511358
0.511338
0.511334
0.511313
0.511217
0.510586
0.563995
0.552186
0.55188
0.551846
0.551869
0.551817
0.5521
0.550734
0.598604
0.599415
0.599261
0.599177
0.599162
0.599172
0.599385
0.597747
0.655168
0.654997
0.655069
0.65528
0.655331
0.655281
0.655049
0.65293
0.721785
0.72193
0.722389
0.723011
0.723285
0.723201
0.722718
0.719664
0.802434
0.803177
0.803982
0.80423
0.804239
0.804163
0.803908
0.800911
0.902791
0.90383
0.904489
0.904581
0.904555
0.904502
0.904213
0.901423
1.03072
1.03178
1.03222
1.03238
1.03236
1.03227
1.03199
1.03119
1.19886
1.19934
1.19898
1.19902
1.19903
1.19893
1.19975
1.19847
1.49827
1.49757
1.4972
1.49721
1.49721
1.49721
1.49774
1.49808
0.331699
0.289269
0.289949
0.336494
0.334327
0.289884
0.289217
0.331865
0.355056
0.305461
0.306143
0.301518
0.300467
0.306219
0.306187
0.355403
0.423783
0.319191
0.319944
0.32008
0.316094
0.320016
0.319916
0.298531
0.427646
0.332459
0.333749
0.333866
0.332403
0.333788
0.333751
0.321537
0.44047
0.349777
0.351103
0.351208
0.34928
0.351134
0.351107
0.338628
0.456184
0.368845
0.370278
0.370329
0.370264
0.370283
0.370285
0.35625
0.473921
0.390009
0.391589
0.391651
0.391629
0.391603
0.391593
0.376542
0.487661
0.413673
0.41537
0.415472
0.415468
0.41541
0.415369
0.409584
0.507818
0.440327
0.442003
0.44212
0.442113
0.442047
0.442002
0.444946
0.526606
0.47317
0.472105
0.472164
0.472125
0.472084
0.47219
0.476555
0.539684
0.507219
0.506713
0.506342
0.506275
0.506279
0.506917
0.511852
0.56973
0.546882
0.546407
0.545965
0.545767
0.545928
0.546564
0.552378
0.603924
0.593352
0.593125
0.592272
0.5921
0.59228
0.59325
0.599585
0.655542
0.647798
0.647455
0.647338
0.647212
0.647283
0.647571
0.655184
0.721761
0.713171
0.713552
0.714506
0.714976
0.714844
0.713653
0.721763
0.802468
0.792287
0.793686
0.794481
0.794426
0.794095
0.793408
0.802533
0.902783
0.89036
0.89176
0.892714
0.892597
0.892204
0.891129
0.9026
1.03166
1.01491
1.01571
1.01435
1.01344
1.01479
1.01482
1.03111
1.19891
1.17522
1.17228
1.17073
1.17073
1.17072
1.17436
1.19749
1.49718
1.42211
1.42207
1.42207
1.42207
1.42207
1.42205
1.49716
0.336392
0.287577
0.291898
0.807065
0.78311
0.291749
0.289111
0.334726
0.356796
0.305648
0.30666
0.290832
1.95371
0.308944
0.306346
0.357538
0.419627
0.319734
0.320973
0.433918
2.51547
0.323366
0.320081
0.30163
0.423015
0.334156
0.334504
0.337145
4.28748
0.336063
0.333976
0.324908
0.43446
0.351555
0.3523
0.428491
5.80737
0.33239
0.351348
0.343643
0.448023
0.3708
0.371394
0.427422
6.44921
0.347458
0.370531
0.364013
0.463144
0.392147
0.392493
0.389294
1.40291
0.39401
0.39188
0.391423
0.479685
0.416028
0.416185
0.41952
0.486739
0.417509
0.415761
0.416171
0.497967
0.442887
0.440676
0.442913
0.626685
0.442383
0.440813
0.443848
0.518534
0.47327
0.470603
0.474174
7.30622
0.472936
0.470967
0.475304
0.542102
0.507896
0.504528
0.507171
0.42302
0.506322
0.50461
0.511325
0.571442
0.547682
0.544462
0.543656
0.557056
0.543459
0.544576
0.55266
0.606285
0.593644
0.590092
0.588568
0.594144
0.588411
0.590403
0.599749
0.655695
0.64792
0.643917
0.642394
0.645511
0.642344
0.64419
0.655226
0.721757
0.712953
0.70856
0.70826
0.709741
0.708339
0.70881
0.721675
0.802285
0.791599
0.785784
0.789182
0.789561
0.789056
0.787174
0.80216
0.90229
0.888319
0.889667
0.889286
0.887935
0.890811
0.890495
0.901734
1.02907
1.01067
1.01207
1.01055
1.01054
1.01055
1.01236
1.02888
1.19604
1.17105
1.17059
1.17059
1.17058
1.17059
1.17059
1.19543
1.49677
1.42208
1.42207
1.42207
1.42207
1.42207
1.42207
1.49677
0.333487
0.28919
0.290523
1.60259
1.58452
0.290127
0.28582
0.337148
0.354754
0.305434
0.307679
0.463253
2.17892
0.310918
0.307405
0.354251
0.421937
0.320309
0.321471
0.616779
2.33701
0.324851
0.320741
0.308774
0.425038
0.333892
0.33503
0.357733
2.91769
0.342939
0.334679
0.331613
0.43615
0.351375
0.352472
0.376966
3.46518
0.360517
0.352112
0.349743
0.449116
0.370677
0.371733
0.400266
3.94123
0.380804
0.371364
0.369388
0.463819
0.392081
0.393109
0.427726
4.94954
0.403604
0.392729
0.391198
0.48035
0.415974
0.416977
0.45735
6.94488
0.428882
0.416585
0.415629
0.498849
0.442834
0.441883
0.473431
7.84925
0.460123
0.441707
0.443212
0.519491
0.473234
0.472054
0.505334
7.41801
0.489759
0.471835
0.47464
0.54288
0.507882
0.506371
0.543551
12.3983
0.525546
0.506145
0.510694
0.570488
0.547696
0.545809
0.57964
3.81003
0.570319
0.545577
0.552262
0.603618
0.593878
0.591497
0.624287
0.46436
0.615455
0.591267
0.599676
0.655549
0.648067
0.644741
0.671572
0.662786
0.644611
0.655204
0.721626
0.71268
0.708109
0.707512
0.733988
0.707135
0.708122
0.721412
0.802162
0.791089
0.785451
0.785226
0.785112
0.785256
0.785484
0.801887
0.902028
0.888012
0.887993
0.887912
0.88788
0.887931
0.888016
0.901668
1.02896
1.01063
1.01056
1.01053
1.01052
1.01054
1.01057
1.02849
1.19591
1.17065
1.17059
1.17058
1.17058
1.17058
1.17059
1.1953
1.49677
1.42208
1.42207
1.42207
1.42207
1.42207
1.42207
1.49677
0.315017
0.289468
0.290028
0.440416
0.439206
0.289928
0.289511
0.314731
0.343673
0.305818
0.306182
0.291941
0.769023
0.304844
0.306166
0.343485
0.42795
0.319547
0.319993
0.318766
0.421798
0.320117
0.319886
0.3081
0.422167
0.333853
0.334034
0.334213
0.319648
0.334006
0.333786
0.330387
0.437005
0.351282
0.351708
0.351629
0.339519
0.351386
0.351411
0.352107
0.451382
0.370578
0.371101
0.371455
0.327857
0.370825
0.370883
0.372025
0.467826
0.39189
0.392313
0.393232
0.442413
0.392385
0.392253
0.393654
0.487078
0.415704
0.416139
0.417316
0.43907
0.416339
0.41629
0.417828
0.514309
0.442252
0.441129
0.44157
0.37868
0.44129
0.44106
0.4446
0.524943
0.472532
0.470928
0.471147
0.472102
0.471084
0.470463
0.47544
0.554788
0.507224
0.505041
0.505041
0.506864
0.50554
0.505121
0.510806
0.571556
0.547268
0.544391
0.542468
0.543314
0.542354
0.5445
0.552695
0.603783
0.593541
0.590029
0.588277
0.588355
0.588097
0.590061
0.599608
0.65563
0.647843
0.644099
0.642285
0.642293
0.64218
0.644011
0.655148
0.721848
0.712829
0.708812
0.708736
0.708604
0.708579
0.709178
0.721522
0.80257
0.791817
0.787478
0.790108
0.78978
0.789398
0.787217
0.802434
0.903259
0.889181
0.890598
0.890646
0.888588
0.891616
0.890561
0.902985
1.02952
1.01277
1.01092
1.01056
1.01056
1.01056
1.01201
1.02935
1.19628
1.17215
1.17109
1.17059
1.17059
1.17059
1.17301
1.19611
1.49772
1.42275
1.42207
1.42207
1.42207
1.42207
1.42204
1.49774
0.299049
0.288524
0.287241
0.286404
0.28673
0.287388
0.288266
0.289513
0.322348
0.309088
0.307571
0.307626
0.308198
0.307947
0.308471
0.314593
0.357756
0.31992
0.320131
0.319968
0.319475
0.319742
0.319582
0.312474
0.369908
0.335947
0.335956
0.335767
0.335614
0.335662
0.335558
0.331907
0.38453
0.353468
0.353134
0.353245
0.353231
0.353258
0.353135
0.349737
0.401385
0.372747
0.372593
0.372679
0.372664
0.372699
0.372553
0.368901
0.421809
0.394273
0.394173
0.394251
0.394239
0.394294
0.39413
0.392038
0.447032
0.418407
0.41827
0.418333
0.418338
0.418416
0.418262
0.417909
0.474599
0.445625
0.445378
0.445438
0.445415
0.445531
0.445395
0.445023
0.50802
0.476295
0.476078
0.476127
0.476084
0.476184
0.476062
0.47545
0.529106
0.511486
0.511186
0.511115
0.511057
0.511151
0.511211
0.510712
0.552397
0.55216
0.551773
0.551584
0.55151
0.551722
0.551973
0.552657
0.599784
0.599548
0.599202
0.599028
0.598913
0.599195
0.599245
0.599533
0.654997
0.655099
0.654945
0.655242
0.655145
0.655252
0.654831
0.655076
0.721718
0.722373
0.723003
0.723723
0.723632
0.723597
0.722406
0.721813
0.803125
0.804176
0.804297
0.804957
0.804935
0.804779
0.803989
0.803087
0.903837
0.904707
0.904955
0.905686
0.905738
0.905598
0.904603
0.903611
1.0312
1.03246
1.0333
1.03331
1.03347
1.03351
1.03263
1.0308
1.19823
1.20071
1.20095
1.20029
1.20038
1.20031
1.20105
1.19952
1.49897
1.49886
1.49856
1.49858
1.49858
1.49855
1.49893
1.49862
0.307996
0.289128
0.290999
0.290172
0.29005
0.290429
0.289253
0.321197
0.3252
0.309515
0.310812
0.31035
0.310367
0.310601
0.30927
0.338728
0.338901
0.322465
0.323733
0.323449
0.323483
0.323736
0.322353
0.348401
0.355626
0.33899
0.34014
0.339957
0.33999
0.340206
0.338972
0.362355
0.375952
0.356749
0.357828
0.357709
0.357732
0.357884
0.356859
0.378715
0.390965
0.376688
0.377565
0.377512
0.377545
0.377602
0.376759
0.396659
0.414678
0.398826
0.399623
0.399619
0.399671
0.399677
0.398886
0.415984
0.435341
0.42365
0.424461
0.424481
0.424545
0.424565
0.423729
0.435813
0.459477
0.451611
0.452578
0.452605
0.452642
0.452686
0.451752
0.459569
0.487942
0.483368
0.484542
0.484573
0.484586
0.484591
0.483491
0.487759
0.525943
0.519682
0.521061
0.521088
0.52109
0.521055
0.519769
0.52562
0.568642
0.561657
0.563189
0.563218
0.563221
0.563177
0.561706
0.568219
0.618782
0.610596
0.612431
0.612454
0.612457
0.612415
0.610633
0.618253
0.677691
0.668813
0.671021
0.671087
0.671094
0.671001
0.668855
0.677052
0.747201
0.739519
0.741436
0.741513
0.741512
0.741409
0.739565
0.746427
0.827588
0.827764
0.827356
0.827406
0.827407
0.827327
0.827797
0.826541
0.936451
0.934672
0.934819
0.934859
0.93486
0.934797
0.934789
0.935305
1.07429
1.07268
1.07283
1.07289
1.0729
1.07276
1.07264
1.07312
1.25565
1.25426
1.25428
1.2543
1.2543
1.25412
1.25382
1.2547
1.49578
1.49537
1.49541
1.49543
1.49543
1.4954
1.49534
1.49594
0.333728
0.345294
0.346585
0.333233
0.333862
0.346025
0.347075
0.333804
0.346605
0.346657
0.333973
0.335231
0.347186
0.346998
0.332442
0.346718
0.344651
0.317792
3.37245
0.319289
4.52609
0.333842
0.344528
0.346693
3.35474
0.318898
4.51917
0.317096
0.333766
0.346641
0.346622
0.335455
0.334027
0.347139
0.346907
0.332912
0.346608
0.345792
0.333913
0.332442
0.346791
0.345267
0.351084
0.3639
0.365278
0.35053
0.351576
0.364867
0.365759
0.351152
0.365297
0.365327
0.35168
0.351222
0.36583
0.365379
0.349397
0.36536
0.365059
0.322877
4.69631
0.352536
3.5254
0.351181
0.365027
0.365327
4.6957
0.320051
3.54937
0.349236
0.35112
0.365307
0.365315
0.351377
0.351399
0.366244
0.365536
0.350291
0.365303
0.36446
0.351289
0.349759
0.365456
0.364146
0.37026
0.3845
0.386019
0.37072
0.37073
0.386528
0.386541
0.370304
0.386042
0.386074
0.370792
0.370927
0.386365
0.387032
0.37027
0.386094
0.38608
0.362203
2.61989
0.387641
0.491205
0.370296
0.386083
0.386056
2.63993
0.362158
0.492663
0.38808
0.370297
0.38605
0.386063
0.371462
0.370494
0.386983
0.386279
0.369429
0.386048
0.38516
0.370424
0.369121
0.386227
0.384935
0.391562
0.407509
0.409138
0.392098
0.392209
0.409777
0.409883
0.391627
0.409174
0.409234
0.391904
0.392424
0.409584
0.409903
0.391627
0.409266
0.409256
0.39336
0.357414
0.410354
0.415809
0.391611
0.409258
0.409224
0.356148
0.393338
0.415908
0.410351
0.39161
0.409207
0.409197
0.392421
0.391819
0.40994
0.409475
0.390693
0.409173
0.408302
0.391767
0.391068
0.40944
0.408702
0.415332
0.433412
0.435011
0.416011
0.416102
0.435756
0.435349
0.415437
0.435054
0.435129
0.415826
0.416129
0.435422
0.436006
0.415465
0.435169
0.435164
0.416589
0.421903
0.436513
0.42811
0.415428
0.435168
0.435121
0.422065
0.416587
0.428561
0.436492
0.415395
0.435099
0.43508
0.416158
0.415711
0.436041
0.435439
0.414481
0.435051
0.434258
0.415648
0.415048
0.435365
0.435745
0.441961
0.463751
0.464196
0.442868
0.440604
0.465265
0.466892
0.442078
0.464197
0.464255
0.440638
0.441571
0.466608
0.467852
0.442109
0.464298
0.464261
0.441917
0.387214
0.46845
0.485828
0.442069
0.464266
0.464239
0.388227
0.441964
0.49786
0.468502
0.44203
0.464219
0.464231
0.441605
0.440647
0.467889
0.466618
0.441186
0.464243
0.464305
0.440612
0.442888
0.467035
0.465289
0.472144
0.498071
0.497732
0.473219
0.470988
0.498719
0.500036
0.472122
0.497606
0.497334
0.470553
0.471805
0.50001
0.500996
0.47212
0.497362
0.497295
0.472416
0.55681
0.501435
0.401877
0.472102
0.497301
0.497289
0.575472
0.472468
0.401936
0.501471
0.472138
0.497293
0.497652
0.47184
0.470562
0.501011
0.500018
0.472793
0.497794
0.498043
0.470999
0.473247
0.500031
0.498756
0.506861
0.536379
0.536091
0.507815
0.504564
0.536998
0.539214
0.506326
0.535997
0.535567
0.50453
0.505448
0.539307
0.540237
0.506268
0.535488
0.535297
0.50586
0.483697
0.540332
0.544779
0.506257
0.535307
0.535381
0.483783
0.505895
0.544733
0.54039
0.506755
0.535495
0.536022
0.505462
0.504539
0.540295
0.539312
0.507168
0.536144
0.536326
0.504558
0.507854
0.539199
0.537041
0.546511
0.581016
0.580759
0.547327
0.544457
0.581248
0.583993
0.546028
0.580655
0.579937
0.544407
0.542743
0.583932
0.584911
0.545756
0.57986
0.579613
0.542944
0.547415
0.585096
0.588393
0.545852
0.579635
0.579739
0.547242
0.543003
0.5884
0.585163
0.546433
0.57985
0.580678
0.542803
0.544401
0.58497
0.583924
0.546822
0.580825
0.580952
0.544438
0.547375
0.583964
0.581307
0.59318
0.633235
0.633005
0.593517
0.590215
0.63332
0.636672
0.592371
0.63298
0.632734
0.590068
0.58794
0.636586
0.638522
0.59205
0.632677
0.63248
0.588129
0.591492
0.638612
0.640393
0.592146
0.632504
0.63252
0.591498
0.588198
0.640393
0.638715
0.593147
0.632641
0.633011
0.588
0.59006
0.638568
0.636577
0.593284
0.633088
0.633161
0.590184
0.593578
0.636632
0.633395
0.647491
0.695751
0.695853
0.647777
0.643973
0.695426
0.699888
0.647366
0.695949
0.696205
0.643683
0.642088
0.699961
0.703498
0.647187
0.696431
0.696857
0.642167
0.644092
0.703513
0.705221
0.647206
0.696866
0.696773
0.644091
0.642273
0.705221
0.703671
0.647488
0.696752
0.696141
0.642135
0.643686
0.703567
0.700052
0.647713
0.696
0.69569
0.643928
0.64787
0.700007
0.695669
0.71341
0.771202
0.772146
0.712757
0.708948
0.770472
0.77633
0.714178
0.772414
0.772814
0.708897
0.708082
0.776433
0.778515
0.715005
0.773003
0.772904
0.708122
0.709632
0.778583
0.779199
0.714923
0.773028
0.772751
0.709632
0.708272
0.779167
0.778792
0.713952
0.772667
0.772459
0.708219
0.709077
0.778573
0.776416
0.713073
0.772165
0.77104
0.708772
0.712995
0.776283
0.770517
0.793412
0.863589
0.864448
0.791804
0.786867
0.861678
0.870228
0.794276
0.865079
0.865928
0.786725
0.789185
0.871082
0.872527
0.794337
0.866094
0.865844
0.789236
0.789819
0.872527
0.868648
0.794206
0.865858
0.865864
0.789813
0.789454
0.868648
0.872694
0.793704
0.865671
0.864936
0.789244
0.787259
0.872445
0.870186
0.792104
0.864456
0.862856
0.786998
0.791808
0.87021
0.86182
0.891274
0.980916
0.981315
0.888555
0.891246
0.978773
0.980903
0.89258
0.981767
0.982465
0.891517
0.892564
0.981238
0.977375
0.892563
0.981975
0.981222
0.89155
0.889004
0.976959
0.976947
0.892336
0.98119
0.981637
0.889002
0.891593
0.976947
0.976967
0.891472
0.981727
0.981212
0.891863
0.890746
0.977354
0.980325
0.889528
0.981024
0.979994
0.890464
0.888877
0.979717
0.978802
1.01525
1.1312
1.13057
1.01197
1.0147
1.12895
1.12649
1.01577
1.12964
1.12625
1.01419
1.01057
1.12613
1.12611
1.01346
1.12625
1.12624
1.01056
1.01055
1.12611
1.12611
1.01399
1.12624
1.12625
1.01055
1.01056
1.12611
1.12611
1.01472
1.12625
1.12977
1.01057
1.01378
1.12611
1.12613
1.01397
1.13092
1.13068
1.01391
1.01178
1.12646
1.12846
1.174
1.30149
1.30087
1.17227
1.17057
1.30058
1.30057
1.17072
1.30058
1.30058
1.17059
1.17059
1.30057
1.30057
1.17073
1.30058
1.30058
1.17059
1.17059
1.30057
1.30057
1.17073
1.30058
1.30058
1.17059
1.17059
1.30057
1.30057
1.17237
1.30058
1.30058
1.17059
1.17059
1.30057
1.30057
1.17475
1.30116
1.30153
1.17054
1.17196
1.30058
1.3006
0.334218
0.347027
0.347498
0.33378
0.3345
0.346755
0.347334
0.335138
0.347801
0.333305
0.335051
0.34403
0.347812
0.357036
4.32991
0.397545
5.45966
0.360526
1.92596
0.374726
2.52197
0.340564
5.38118
0.403953
2.02241
0.360141
2.59756
0.374738
0.33425
0.336007
0.347153
0.343549
0.334806
0.357059
0.347766
0.332647
0.346856
0.345726
0.334442
0.333787
0.347353
0.346752
0.352001
0.365808
0.366181
0.351293
0.35185
0.365595
0.366086
0.330544
0.366443
0.33385
0.352258
0.361775
0.366489
0.376624
5.86348
0.456303
6.80762
0.379754
2.74669
0.396066
3.66122
0.437495
6.74924
0.462025
2.81376
0.379766
3.66654
0.396038
0.351643
0.336523
0.36583
0.361768
0.352278
0.376622
0.366503
0.350218
0.365573
0.364325
0.351865
0.351288
0.366093
0.365586
0.371154
0.386589
0.386905
0.370607
0.37108
0.386446
0.386868
0.345655
0.386953
0.386148
0.371483
0.381825
0.387269
0.398276
6.5352
0.377507
2.73397
0.402052
4.04136
0.421125
5.02365
0.430416
2.7377
0.376806
4.01972
0.40201
4.93379
0.421186
0.370772
0.386613
0.386542
0.381823
0.371489
0.398279
0.387272
0.369272
0.386336
0.38532
0.371083
0.370597
0.386869
0.386437
0.392454
0.409796
0.410081
0.392016
0.392422
0.409687
0.410286
0.394386
0.409959
0.411216
0.392826
0.404084
0.410517
0.422675
1.4342
0.413833
0.342971
0.427695
5.22576
0.449044
6.12122
0.389831
0.333001
0.413913
5.11832
0.42782
5.93912
0.449266
0.392084
0.411276
0.409687
0.404095
0.39283
0.422711
0.410521
0.391952
0.409483
0.409613
0.392424
0.392009
0.410284
0.409683
0.416303
0.435864
0.435742
0.415923
0.416592
0.435771
0.43639
0.417467
0.435663
0.437398
0.416916
0.429255
0.436812
0.450161
0.491808
0.439793
1.29803
0.45676
6.63309
0.480959
7.37605
0.419636
1.2717
0.439963
6.41095
0.456978
6.99607
0.481131
0.415905
0.437455
0.435811
0.429296
0.416918
0.45019
0.436815
0.41594
0.435799
0.435859
0.41659
0.41592
0.436389
0.435769
0.440772
0.465308
0.46707
0.442798
0.441681
0.465238
0.467839
0.442311
0.466664
0.468886
0.44184
0.460676
0.468049
0.486766
0.632694
0.470171
6.24604
0.472772
7.8049
0.501245
4.26738
0.443003
6.23957
0.470315
7.56401
0.472807
4.16586
0.501242
0.440695
0.468969
0.466684
0.460693
0.441847
0.486744
0.468056
0.442881
0.467118
0.465301
0.441687
0.442797
0.467844
0.465237
0.470918
0.498793
0.500018
0.47321
0.471819
0.498759
0.501586
0.472853
0.500018
0.50186
0.472032
0.490766
0.501806
0.52126
7.23044
0.502814
0.809775
0.50523
4.79553
0.53684
11.63
0.474313
0.82584
0.502881
4.70197
0.505234
11.4859
0.537008
0.470623
0.501902
0.500041
0.490748
0.472039
0.521321
0.501813
0.473263
0.500082
0.498784
0.471825
0.473209
0.501591
0.498758
0.504544
0.5372
0.53927
0.507871
0.506133
0.537196
0.540326
0.506283
0.539592
0.540808
0.506354
0.526123
0.540558
0.569004
0.425767
0.541066
0.552324
0.542055
13.141
0.578785
3.31235
0.507231
0.552268
0.54114
12.9661
0.542252
2.26965
0.578875
0.504551
0.540866
0.539638
0.526197
0.506361
0.569081
0.540564
0.507886
0.539358
0.537188
0.506138
0.507869
0.540331
0.537195
0.544482
0.581379
0.584032
0.5477
0.545575
0.581662
0.585183
0.543402
0.583946
0.585307
0.545808
0.571776
0.585424
0.613765
0.557081
0.585531
0.591068
0.581594
2.28945
0.623356
3.65781
0.543731
0.59107
0.585626
1.29277
0.581679
2.93038
0.623584
0.544514
0.585376
0.584014
0.571852
0.545814
0.613942
0.58543
0.547669
0.584148
0.581364
0.545579
0.547699
0.585187
0.581662
0.590283
0.633457
0.636822
0.593887
0.591281
0.633662
0.63747
0.588338
0.636795
0.638614
0.59152
0.617086
0.637633
0.660642
0.594139
0.638792
0.641902
0.626852
2.91513
0.670033
3.43529
0.588664
0.641898
0.638931
2.22609
0.627086
3.34133
0.670324
0.590162
0.638722
0.636899
0.617269
0.591526
0.660819
0.637636
0.59363
0.636984
0.633445
0.591284
0.593887
0.637472
0.633661
0.64402
0.695602
0.69969
0.648076
0.644623
0.695395
0.699499
0.642241
0.699695
0.703552
0.644766
0.663021
0.699505
0.703317
0.645517
0.703635
0.705394
0.67196
3.93975
0.703877
0.735822
0.64254
0.705413
0.703799
3.80322
0.672238
0.735825
0.703875
0.644031
0.703786
0.700033
0.663188
0.644769
0.703315
0.699505
0.647924
0.700135
0.695743
0.644625
0.648076
0.699499
0.695394
0.708463
0.7703
0.776159
0.712688
0.708118
0.769981
0.774915
0.70815
0.776095
0.778564
0.708112
0.707148
0.774888
0.774677
0.709724
0.778528
0.778943
0.707548
0.731158
0.774646
0.774533
0.708402
0.778926
0.778716
0.731169
0.707545
0.774533
0.774646
0.708795
0.778394
0.776472
0.707145
0.708112
0.774677
0.774889
0.713071
0.776441
0.770607
0.708118
0.712688
0.774916
0.769981
0.786324
0.86175
0.869915
0.791099
0.785475
0.861726
0.86797
0.789235
0.870432
0.87171
0.785449
0.785251
0.867951
0.867866
0.789566
0.870923
0.867989
0.785221
0.785106
0.867851
0.867805
0.789373
0.867989
0.87162
0.785106
0.785221
0.867805
0.867851
0.787331
0.871846
0.870217
0.785251
0.785449
0.867866
0.867952
0.791887
0.870318
0.86171
0.785475
0.791099
0.86797
0.861725
0.889603
0.977316
0.978467
0.888025
0.888015
0.977053
0.976973
0.890429
0.978855
0.976962
0.887991
0.887928
0.976961
0.976933
0.887935
0.976942
0.976936
0.887909
0.887876
0.976924
0.976911
0.889393
0.976936
0.976946
0.887876
0.887909
0.976911
0.976924
0.890394
0.97696
0.978727
0.887928
0.887991
0.976933
0.976961
0.888244
0.97833
0.97764
0.888015
0.888025
0.976973
0.977053
1.01254
1.12729
1.12612
1.01064
1.01057
1.1262
1.12612
1.01055
1.12612
1.12611
1.01056
1.01054
1.12611
1.1261
1.01054
1.12611
1.1261
1.01053
1.01052
1.1261
1.1261
1.01055
1.1261
1.12611
1.01052
1.01053
1.1261
1.1261
1.01197
1.12611
1.12612
1.01054
1.01056
1.1261
1.12611
1.01089
1.12613
1.12672
1.01057
1.01064
1.12612
1.1262
1.1706
1.30058
1.30057
1.17067
1.17059
1.30058
1.30057
1.17059
1.30057
1.30057
1.17059
1.17058
1.30057
1.30057
1.17058
1.30057
1.30057
1.17058
1.17058
1.30057
1.30057
1.17059
1.30057
1.30057
1.17058
1.17058
1.30057
1.30057
1.17059
1.30057
1.30057
1.17058
1.17059
1.30057
1.30057
1.1707
1.30057
1.30058
1.17059
1.17067
1.30057
1.30058
0.334683
0.346842
0.347595
0.33378
0.334414
0.346678
0.34732
0.343184
0.347949
0.355977
0.334483
0.334892
0.347395
0.348111
2.96529
0.37204
3.33223
0.328705
0.550511
0.349049
0.378424
0.357033
3.33184
0.371688
0.529355
0.328819
0.368529
0.348733
0.335023
0.355855
0.347943
0.334733
0.334134
0.347616
0.3472
0.333864
0.347592
0.346815
0.334118
0.334134
0.347319
0.347051
0.352115
0.365667
0.36637
0.3512
0.351841
0.365475
0.36611
0.360615
0.366733
0.375561
0.351921
0.352731
0.366041
0.367127
3.43906
0.393944
3.74196
0.353486
0.497871
0.367863
1.20954
0.376673
3.81889
0.393713
0.482375
0.352993
1.20143
0.367488
0.352466
0.375487
0.366727
0.352262
0.351821
0.366733
0.366046
0.351346
0.366366
0.365638
0.351842
0.351575
0.36611
0.365855
0.371367
0.386513
0.387173
0.370481
0.371113
0.386306
0.386665
0.380866
0.387546
0.397731
0.371052
0.372186
0.386781
0.388109
3.86661
0.420593
4.56553
0.372651
1.64618
0.385787
3.13809
0.399978
4.59025
0.420226
1.63648
0.372299
3.13014
0.385693
0.371727
0.397664
0.387542
0.371858
0.371058
0.38808
0.386786
0.370649
0.38717
0.386485
0.371035
0.370863
0.386662
0.386695
0.392732
0.409742
0.410366
0.391867
0.392306
0.409495
0.409828
0.403659
0.410754
0.422401
0.392432
0.393889
0.409966
0.411623
4.93634
0.449715
6.4611
0.39003
3.6232
0.406342
4.46911
0.427284
6.40914
0.449192
3.61496
0.389934
4.44254
0.4065
0.393105
0.422337
0.410752
0.393853
0.392438
0.411571
0.410045
0.392054
0.410365
0.409718
0.392303
0.39226
0.40992
0.409904
0.416586
0.43581
0.436373
0.415707
0.416132
0.435376
0.436091
0.428945
0.436774
0.449438
0.416249
0.417984
0.436192
0.437459
7.01876
0.481025
7.99721
0.414108
4.29399
0.439693
1.94577
0.456769
7.85544
0.480199
4.25363
0.414357
1.88469
0.439338
0.416976
0.449351
0.436775
0.417924
0.416443
0.437403
0.4362
0.41595
0.436373
0.435788
0.416326
0.416124
0.436093
0.435819
0.441704
0.465265
0.467851
0.442377
0.441196
0.464741
0.466986
0.460249
0.468072
0.485839
0.441194
0.441964
0.467007
0.467444
8.05938
0.501261
7.20554
0.442268
0.173372
0.467708
0.469251
0.473068
6.86763
0.500859
0.17642
0.44227
0.46911
0.467725
0.441883
0.485733
0.468072
0.441881
0.441183
0.4674
0.467028
0.442812
0.467854
0.465245
0.441196
0.442826
0.466957
0.465217
0.471832
0.498774
0.501596
0.472696
0.470947
0.498204
0.500541
0.489864
0.501824
0.520718
0.470971
0.471394
0.500562
0.500988
7.725
0.538208
12.1912
0.471651
0.472776
0.501393
0.48684
0.504973
11.7655
0.538025
0.472828
0.471672
0.490058
0.501431
0.472054
0.520672
0.501825
0.471452
0.470814
0.501602
0.500602
0.473215
0.501599
0.498758
0.470787
0.473182
0.500605
0.498711
0.506142
0.537196
0.540327
0.507305
0.505056
0.536784
0.539349
0.525577
0.540562
0.567467
0.505075
0.505419
0.539371
0.540599
12.8745
0.576919
5.20174
0.506033
0.492156
0.540683
0.54169
0.543369
3.24263
0.576984
0.496073
0.506071
0.541695
0.54004
0.506372
0.567592
0.540564
0.506268
0.505138
0.539899
0.539421
0.507867
0.540331
0.537186
0.505143
0.507813
0.539407
0.537206
0.545574
0.581653
0.585167
0.547238
0.544471
0.581266
0.584005
0.570195
0.585404
0.61196
0.54449
0.543203
0.583911
0.58531
5.61025
0.620925
4.05875
0.543288
0.544272
0.5854
0.585944
0.579711
0.9807
0.621186
0.544277
0.542653
0.585946
0.585369
0.545812
0.6122
0.585408
0.542502
0.544533
0.585543
0.583903
0.547688
0.585171
0.581647
0.544523
0.547699
0.583998
0.581327
0.591262
0.633652
0.637451
0.593604
0.590095
0.633434
0.636984
0.6152
0.637605
0.660146
0.589986
0.58835
0.636855
0.63868
2.73519
0.669376
9.40551
0.588487
0.588986
0.638878
0.639055
0.624545
8.88288
0.669527
0.588991
0.588437
0.639055
0.638705
0.591501
0.660257
0.63761
0.588367
0.589979
0.638634
0.636824
0.593872
0.637456
0.633645
0.590094
0.593612
0.636976
0.633444
0.644607
0.695387
0.6995
0.647897
0.644139
0.695612
0.699919
0.662695
0.699501
0.703284
0.644179
0.642263
0.700196
0.704073
0.70383
0.742517
0.642448
0.642849
0.704427
0.704396
0.671695
0.742533
0.703843
0.64285
0.642356
0.704401
0.704296
0.644746
0.7033
0.699502
0.642237
0.644157
0.704021
0.700314
0.64806
0.699503
0.695378
0.644135
0.647909
0.700245
0.69563
0.70812
0.769972
0.774922
0.71293
0.708639
0.77051
0.776513
0.707122
0.77489
0.774682
0.709062
0.708543
0.776682
0.777834
0.733976
0.774651
0.774539
0.708857
0.708676
0.778909
0.779085
0.707521
0.774539
0.774651
0.70868
0.708728
0.779086
0.77889
0.708111
0.774682
0.77489
0.708496
0.708975
0.777719
0.77667
0.712671
0.774925
0.769961
0.708911
0.712941
0.77651
0.770526
0.785482
0.861713
0.867977
0.791712
0.787325
0.861952
0.870588
0.785256
0.867953
0.867868
0.787572
0.788515
0.87064
0.87104
0.785112
0.867853
0.867808
0.78961
0.789768
0.868984
0.867982
0.785226
0.867808
0.867853
0.789768
0.789622
0.867982
0.869354
0.785451
0.867868
0.867953
0.788373
0.787565
0.871097
0.870633
0.791078
0.86798
0.8617
0.787268
0.791744
0.870588
0.861981
0.888016
0.977036
0.976974
0.889303
0.890698
0.978833
0.97783
0.887931
0.976962
0.976934
0.890807
0.889136
0.977329
0.976959
0.88788
0.976926
0.976912
0.887973
0.88795
0.976954
0.976944
0.887912
0.976912
0.976926
0.88795
0.888322
0.976944
0.976952
0.887993
0.976934
0.976962
0.889186
0.890779
0.976961
0.977309
0.887998
0.976973
0.977019
0.890679
0.888987
0.977802
0.97915
1.01057
1.12618
1.12612
1.01157
1.01064
1.1263
1.12729
1.01054
1.12611
1.1261
1.0106
1.01056
1.12661
1.12611
1.01052
1.1261
1.1261
1.01055
1.01055
1.12611
1.12611
1.01053
1.1261
1.1261
1.01055
1.01055
1.12611
1.12611
1.01056
1.1261
1.12611
1.01056
1.01059
1.12611
1.12661
1.01061
1.12612
1.12615
1.01063
1.01171
1.12784
1.12618
1.17059
1.30058
1.30057
1.17116
1.17068
1.30075
1.30057
1.17058
1.30057
1.30057
1.1706
1.17059
1.30057
1.30057
1.17058
1.30057
1.30057
1.17059
1.17059
1.30057
1.30057
1.17058
1.30057
1.30057
1.17059
1.17059
1.30057
1.30057
1.17059
1.30057
1.30057
1.17059
1.1706
1.30057
1.30057
1.17063
1.30057
1.30058
1.17113
1.17104
1.30058
1.30097
0.334078
0.346759
0.347269
0.332695
0.333669
0.345751
0.346546
0.334001
0.347086
0.346964
0.33368
0.333722
0.34656
0.346621
0.319462
0.346979
0.338916
0.333731
0.333763
0.34663
0.346636
0.33431
0.339986
0.347019
0.333764
0.333738
0.346635
0.346633
0.333725
0.346843
0.346753
0.333732
0.333676
0.346624
0.346551
0.33403
0.346909
0.347084
0.333648
0.332946
0.346522
0.345951
0.35179
0.365567