/*--------------------------------*- C++ -*----------------------------------*\
| =========                 |                                                 |
| \\      /  F ield         | OpenFOAM: The Open Source CFD Toolbox           |
|  \\    /   O peration     | Version:  2206                                  |
|   \\  /    A nd           | Website:  www.openfoam.com                      |
|    \\/     M anipulation  |                                                 |
\*---------------------------------------------------------------------------*/
FoamFile
{
    version     2.0;
    format      ascii;
    arch        "LSB;label=32;scalar=64";
    class       volScalarField;
    location    "800";
    object      nut;
}
// * * * * * * * * * * * * * * * * * * * * * * * * * * * * * * * * * * * * * //

dimensions      [0 2 -1 0 0 0 0];

internalField   nonuniform List<scalar> 
187974
(
0.0422751
0.042298
0.0423452
0.0428076
0.0428
0.0423334
0.0422984
0.042291
0.0426731
0.0428338
0.0428774
0.0430254
0.0430326
0.0428749
0.0428008
0.0426889
0.0428751
0.0430465
0.0429836
0.0431175
0.0431154
0.0430003
0.0430491
0.042891
0.0430717
0.0431314
0.0431058
0.0432447
0.0432454
0.0431208
0.0431346
0.0430882
0.0433157
0.0432501
0.0432168
0.043364
0.0433647
0.0432295
0.0432521
0.0433325
0.0435645
0.0434182
0.0434008
0.0435149
0.0435157
0.0434061
0.0434108
0.04358
0.0438113
0.0437079
0.0436972
0.0437082
0.0437092
0.0436987
0.0436922
0.0438192
0.0440656
0.0439919
0.0439797
0.0439911
0.043992
0.0439832
0.043977
0.0440691
0.0443088
0.0442893
0.0442622
0.0442612
0.0442619
0.0442644
0.0442715
0.0443097
0.0445441
0.044581
0.0445488
0.0445522
0.0445523
0.0445514
0.0445607
0.0445317
0.0448988
0.0448765
0.0448553
0.0448601
0.0448601
0.0448564
0.0448674
0.0449111
0.0451826
0.0451796
0.0451652
0.0451707
0.0451706
0.0451647
0.0451604
0.0452
0.0454894
0.04548
0.0454841
0.0454833
0.0454832
0.0454843
0.0454615
0.0455077
0.0458264
0.0458156
0.0458158
0.045817
0.0458172
0.0458167
0.0457979
0.0458449
0.046197
0.0461854
0.0461872
0.0461878
0.046188
0.0461878
0.0461719
0.0462099
0.0466106
0.0465974
0.0465984
0.0465986
0.0465987
0.0465987
0.0465995
0.0466091
0.047062
0.0470619
0.0470619
0.0470618
0.0470617
0.0470619
0.0470624
0.0470678
0.047592
0.0475893
0.0475897
0.0475898
0.0475898
0.0475897
0.0475893
0.0475917
0.0481957
0.0481927
0.0481928
0.0481929
0.0481929
0.0481928
0.0481926
0.0481957
0.0488697
0.0488679
0.048868
0.048868
0.048868
0.0488679
0.0488678
0.0488697
0.0404461
0.0427042
0.0427906
0.0428367
0.042836
0.0427875
0.0426919
0.0404434
0.0410586
0.0430083
0.0430577
0.0430741
0.0430744
0.0430558
0.0430009
0.041077
0.0398084
0.0430956
0.0431558
0.0431771
0.0431772
0.0431582
0.0431054
0.0429512
0.0406477
0.0433487
0.0433452
0.0433502
0.0433506
0.043348
0.0433499
0.0430589
0.0410917
0.0434904
0.0434902
0.043519
0.0435192
0.0434924
0.0434988
0.0433361
0.0414511
0.0436156
0.0436248
0.0436477
0.043643
0.0436043
0.0436326
0.0435692
0.0419268
0.0438361
0.043848
0.0437629
0.0437522
0.0437957
0.043849
0.0438042
0.0425846
0.0440827
0.044082
0.0439995
0.0439929
0.0440341
0.0440924
0.0440542
0.0432126
0.0443221
0.0443119
0.0442783
0.0442789
0.0442765
0.0443245
0.0442865
0.0438313
0.0445593
0.0445718
0.0445698
0.0445687
0.0445681
0.0445663
0.0445268
0.044415
0.0448377
0.0448344
0.0448344
0.0448344
0.0448342
0.0448323
0.0448257
0.0449404
0.0451113
0.0451093
0.0451091
0.0451093
0.0451089
0.0451106
0.045096
0.0454248
0.0454087
0.0454079
0.0454075
0.0454074
0.0454074
0.0454084
0.0453933
0.0457344
0.0457325
0.045733
0.0457343
0.0457346
0.0457342
0.0457327
0.0457154
0.0460898
0.0460905
0.0460929
0.0460962
0.0460975
0.046097
0.0460944
0.0460733
0.0464826
0.0464863
0.04649
0.0464912
0.0464912
0.0464908
0.0464895
0.0464713
0.0469233
0.0469286
0.0469313
0.0469317
0.0469316
0.0469313
0.04693
0.0469156
0.0474252
0.0474299
0.0474315
0.0474322
0.0474321
0.0474317
0.0474304
0.047427
0.0480055
0.0480076
0.0480064
0.0480065
0.0480065
0.0480062
0.0480088
0.0480041
0.0488774
0.0488756
0.0488747
0.0488747
0.0488747
0.0488747
0.0488761
0.0488769
0.0403136
0.0428453
0.0428707
0.0482861
0.0480189
0.0428626
0.0428424
0.0403063
0.0409665
0.043027
0.0430328
0.0425015
0.0423551
0.043037
0.043035
0.0409673
0.0398405
0.0431826
0.0431876
0.0431951
0.0426954
0.0431925
0.0431859
0.0430339
0.0405787
0.0433235
0.0433323
0.0433404
0.0431767
0.0433365
0.0433319
0.0429344
0.0411935
0.043501
0.0435082
0.0435156
0.0433092
0.0435123
0.043508
0.0431137
0.0418168
0.0436881
0.0436936
0.0436969
0.0436945
0.0436957
0.0436934
0.0432878
0.0424302
0.0438856
0.0438895
0.0438913
0.0438923
0.0438907
0.0438894
0.0434794
0.042948
0.0440943
0.0440971
0.0440991
0.0441004
0.0440984
0.0440969
0.0439027
0.0434946
0.0443147
0.044317
0.0443192
0.0443206
0.0443184
0.0443168
0.0443146
0.0439813
0.0445602
0.0445512
0.044553
0.0445532
0.0445521
0.0445517
0.0445733
0.044362
0.0448101
0.0448042
0.0448027
0.0448031
0.0448021
0.0448055
0.0448344
0.0448737
0.0450793
0.0450754
0.0450735
0.0450731
0.0450731
0.0450763
0.0451109
0.0453601
0.0453733
0.0453723
0.045368
0.0453678
0.0453679
0.0453729
0.0454086
0.0457318
0.0456934
0.0456916
0.0456916
0.0456914
0.0456912
0.0456921
0.0457323
0.0460895
0.0460465
0.0460484
0.0460535
0.0460561
0.0460552
0.0460489
0.0460883
0.046483
0.0464362
0.0464424
0.0464461
0.0464459
0.0464444
0.0464412
0.0464818
0.0469243
0.0468724
0.0468778
0.0468818
0.0468813
0.0468796
0.0468752
0.046922
0.0474296
0.0473666
0.0473691
0.0473639
0.0473606
0.0473656
0.0473658
0.0474261
0.0480065
0.0479268
0.0479167
0.0479116
0.0479116
0.0479116
0.0479234
0.0480005
0.0488747
0.0486679
0.0486677
0.0486677
0.0486677
0.0486677
0.0486677
0.0488746
0.0404795
0.0427923
0.0430712
0.0885771
0.0863473
0.0430485
0.042854
0.0404349
0.0410533
0.0430503
0.0430604
0.0390546
0.145909
0.0432765
0.0430461
0.0410671
0.0398406
0.0432064
0.0432442
0.0513167
0.166427
0.0434625
0.0431974
0.0430377
0.0405383
0.0433405
0.043366
0.0420592
0.23697
0.043371
0.0433466
0.0429801
0.041114
0.0435177
0.0435469
0.0474377
0.287344
0.0411684
0.0435224
0.0431992
0.041694
0.0437029
0.0437256
0.0465717
0.326582
0.0411123
0.0437056
0.0434345
0.0422689
0.0438992
0.0439139
0.0435398
0.12561
0.0440688
0.0439003
0.0438271
0.0428281
0.0441068
0.0441185
0.0443629
0.0453996
0.0442305
0.0441078
0.0440603
0.0433697
0.0443271
0.044315
0.0444472
0.0500885
0.044416
0.0443139
0.0443013
0.0438936
0.0445621
0.044549
0.0447354
0.237855
0.0446675
0.0445491
0.0445564
0.0443996
0.0448137
0.0447971
0.0449371
0.0366614
0.0448903
0.0447952
0.0448273
0.0449063
0.0450844
0.0450702
0.0451346
0.0459788
0.045123
0.0450687
0.0451132
0.0453851
0.0453759
0.0453603
0.0454079
0.0456656
0.0453979
0.0453602
0.0454098
0.045733
0.0456945
0.0456759
0.0457011
0.0458435
0.0456956
0.045676
0.0457325
0.0460894
0.0460453
0.0460239
0.0460294
0.04605
0.0460287
0.0460245
0.0460877
0.0464819
0.0464326
0.0464053
0.0464219
0.0464239
0.046421
0.0464116
0.0464799
0.0469219
0.0468633
0.046869
0.0468674
0.0468618
0.0468739
0.0468725
0.0469182
0.0474198
0.0473502
0.0473552
0.0473496
0.0473495
0.0473496
0.0473563
0.0474176
0.0479971
0.0479126
0.047911
0.047911
0.047911
0.047911
0.047911
0.0479938
0.0488737
0.0486678
0.0486677
0.0486677
0.0486677
0.0486677
0.0486677
0.0488737
0.0404104
0.0428319
0.0428092
0.152902
0.151414
0.0427637
0.0427291
0.0405095
0.0410132
0.0430154
0.0431426
0.0560131
0.163085
0.0434182
0.0430765
0.0409974
0.0399045
0.0432021
0.0432768
0.0702142
0.16769
0.0435691
0.0432102
0.0433123
0.0405971
0.0433483
0.0433921
0.0453297
0.174199
0.0440852
0.0433632
0.0432079
0.0411601
0.0435227
0.0435662
0.0455636
0.179779
0.044225
0.0435386
0.0433975
0.0417228
0.0437067
0.0437495
0.0459173
0.179917
0.0444405
0.0437233
0.0436068
0.0422867
0.0439018
0.0439442
0.0464103
0.198125
0.0446918
0.0439187
0.0438239
0.0428436
0.044109
0.044151
0.0467942
0.236386
0.0449454
0.0441259
0.0440512
0.0433864
0.0443292
0.0443485
0.0463175
0.22942
0.0454929
0.0443377
0.0442911
0.0439089
0.0445641
0.0445836
0.0464892
0.162059
0.0456032
0.0445713
0.0445466
0.0444106
0.0448156
0.044832
0.0467831
0.211163
0.0458447
0.0448206
0.0448189
0.0448976
0.0450861
0.0450997
0.0467835
0.0492035
0.0463363
0.045089
0.0451087
0.04536
0.0453785
0.0453865
0.0468705
0.00368648
0.0464865
0.0453771
0.0454087
0.045732
0.0456961
0.0456911
0.0468222
0.0464759
0.0456853
0.0457324
0.0460887
0.0460443
0.0460241
0.0460987
0.0307629
0.0460817
0.0460228
0.0460864
0.0464814
0.0464304
0.0464038
0.0464045
0.0464058
0.0464043
0.0464038
0.0464787
0.0469208
0.046862
0.046862
0.0468617
0.0468616
0.0468618
0.046862
0.0469179
0.0474194
0.04735
0.0473496
0.0473495
0.0473495
0.0473495
0.0473496
0.0474162
0.0479967
0.0479113
0.047911
0.0479109
0.0479109
0.047911
0.047911
0.0479934
0.0488737
0.0486678
0.0486677
0.0486677
0.0486677
0.0486677
0.0486677
0.0488737
0.0410999
0.0428403
0.0428847
0.0613423
0.0612201
0.0428716
0.0428379
0.0410841
0.0412833
0.0430354
0.0430422
0.0410273
0.0917072
0.0428585
0.0430395
0.041266
0.0399726
0.0431881
0.0431956
0.0429881
0.0544744
0.0432151
0.0431882
0.0431651
0.040548
0.0433254
0.0433416
0.0433992
0.0416099
0.0433694
0.0433363
0.043139
0.0411887
0.0435035
0.0435193
0.0435495
0.042229
0.0435339
0.0435141
0.0434639
0.0417783
0.0436905
0.0437064
0.0437586
0.0385335
0.0437251
0.0437021
0.0436732
0.0423688
0.0438872
0.0439013
0.0439922
0.0464777
0.0439302
0.0438984
0.0438789
0.0429606
0.0440969
0.0441089
0.0442078
0.0445503
0.0441404
0.0441077
0.0440856
0.0436107
0.0443167
0.0443145
0.0443649
0.0384622
0.0443516
0.0443129
0.0443172
0.0439729
0.0445538
0.0445464
0.0445748
0.0446452
0.0445689
0.0445417
0.0445616
0.0445405
0.0448076
0.0447961
0.0448197
0.044953
0.0448184
0.0447957
0.0448239
0.0448973
0.0450818
0.0450656
0.0450743
0.045131
0.0450711
0.0450653
0.0451149
0.0453593
0.045375
0.0453564
0.0453646
0.0454032
0.0453615
0.0453556
0.0454087
0.0457318
0.0456939
0.0456744
0.0456766
0.0457054
0.045675
0.0456733
0.045732
0.0460894
0.0460447
0.0460244
0.0460269
0.0460313
0.046026
0.0460258
0.046087
0.0464829
0.0464337
0.0464131
0.0464255
0.0464244
0.0464223
0.0464116
0.0464813
0.0469256
0.046867
0.0468729
0.0468731
0.0468645
0.0468772
0.0468726
0.0469235
0.0474211
0.047358
0.047351
0.0473496
0.0473496
0.0473496
0.0473549
0.0474194
0.0479976
0.0479164
0.0479126
0.047911
0.047911
0.047911
0.0479187
0.047996
0.048876
0.0486696
0.0486677
0.0486677
0.0486677
0.0486677
0.0486677
0.0488761
0.0417154
0.0428194
0.0427882
0.0426043
0.0425972
0.0427838
0.0428152
0.0413406
0.0419357
0.0430492
0.0430137
0.0429609
0.0429749
0.0430185
0.0430418
0.041545
0.041323
0.0431847
0.0431874
0.0431976
0.043165
0.0431831
0.0431792
0.0431417
0.0417502
0.0433511
0.0433513
0.0433503
0.0433454
0.043348
0.0433467
0.0432195
0.0421595
0.0435284
0.0435241
0.0435258
0.0435256
0.0435259
0.0435244
0.0434163
0.0425372
0.043714
0.0437116
0.0437129
0.043713
0.043713
0.0437113
0.0436044
0.042872
0.0439102
0.0439092
0.0439103
0.0439104
0.0439104
0.0439087
0.0438352
0.0431976
0.0441196
0.0441182
0.044119
0.0441193
0.0441196
0.0441181
0.0440947
0.0435472
0.0443427
0.0443405
0.0443412
0.0443412
0.0443419
0.0443406
0.0443211
0.0438813
0.0445795
0.0445778
0.0445784
0.0445781
0.0445787
0.0445776
0.0445678
0.0444874
0.0448346
0.0448325
0.0448322
0.0448319
0.0448323
0.0448326
0.0448229
0.0451088
0.0451102
0.0451076
0.0451065
0.0451061
0.0451074
0.0451089
0.045115
0.0454052
0.0454086
0.0454064
0.0454055
0.045405
0.0454065
0.0454066
0.0454091
0.0457315
0.0457321
0.0457312
0.045733
0.0457325
0.045733
0.0457305
0.0457325
0.0460886
0.0460918
0.0460948
0.0460985
0.046098
0.0460978
0.0460918
0.0460894
0.0464852
0.0464898
0.0464902
0.0464932
0.0464931
0.0464924
0.0464887
0.0464854
0.0469278
0.0469312
0.046932
0.046935
0.0469352
0.0469346
0.0469305
0.0469272
0.047427
0.0474316
0.0474343
0.0474343
0.0474349
0.047435
0.0474318
0.0474259
0.0480038
0.0480114
0.0480117
0.0480096
0.0480099
0.0480097
0.0480122
0.0480082
0.0488791
0.0488789
0.0488782
0.0488782
0.0488782
0.0488782
0.0488791
0.0488783
0.0418489
0.0427819
0.0427194
0.0427447
0.0427415
0.0427044
0.0427831
0.0423273
0.042603
0.0430405
0.0429927
0.0430145
0.0430133
0.0429831
0.0430493
0.0427316
0.0428214
0.0431914
0.0431539
0.0431729
0.0431733
0.0431497
0.0431986
0.0429254
0.0431576
0.0433694
0.0433467
0.0433624
0.043363
0.0433462
0.0433712
0.0431789
0.043493
0.0435482
0.0435425
0.0435527
0.043553
0.0435434
0.0435476
0.0434431
0.0436784
0.0437367
0.0437442
0.0437486
0.0437489
0.043745
0.0437365
0.043698
0.0439074
0.0439373
0.0439503
0.0439508
0.0439513
0.0439509
0.0439376
0.0439411
0.044158
0.0441503
0.044164
0.0441633
0.0441638
0.0441647
0.0441512
0.044159
0.0443982
0.0443773
0.0443904
0.0443901
0.0443904
0.0443912
0.0443785
0.0443967
0.0446493
0.0446199
0.0446335
0.0446337
0.0446338
0.0446338
0.0446208
0.0446435
0.0449124
0.0448801
0.0448948
0.044895
0.044895
0.0448947
0.0448806
0.0449096
0.0451984
0.0451609
0.0451762
0.0451763
0.0451764
0.0451761
0.0451612
0.0451937
0.0455062
0.0454654
0.0454817
0.0454818
0.0454818
0.0454816
0.0454656
0.0455014
0.045841
0.0458005
0.0458175
0.0458178
0.0458179
0.0458174
0.0458007
0.0458357
0.0462054
0.0461745
0.0461876
0.0461879
0.0461879
0.0461875
0.0461747
0.0461997
0.0466057
0.0466009
0.0465986
0.0465988
0.0465988
0.0465985
0.046601
0.046599
0.0470698
0.0470611
0.0470616
0.0470618
0.0470618
0.0470615
0.0470615
0.0470634
0.0475971
0.047589
0.0475896
0.0475898
0.0475898
0.0475893
0.0475889
0.0475915
0.0481985
0.0481928
0.0481929
0.0481929
0.0481929
0.0481924
0.0481916
0.0481947
0.0488692
0.0488678
0.0488679
0.0488679
0.0488679
0.0488678
0.0488677
0.0488696
0.0433318
0.0434557
0.043463
0.0433417
0.0433398
0.0434751
0.0434748
0.0433365
0.0434634
0.0434676
0.0433468
0.0434171
0.0434825
0.0434375
0.0431816
0.0434714
0.0432471
0.0412471
0.21514
0.0400654
0.258449
0.0433404
0.0432332
0.0434715
0.214106
0.041374
0.257739
0.0398129
0.0433325
0.0434677
0.0434636
0.0434337
0.0433473
0.043446
0.0434791
0.0433375
0.0434631
0.0434706
0.0433404
0.0433373
0.0434718
0.0434708
0.0435079
0.0436404
0.043646
0.0435201
0.0435195
0.0436553
0.0436565
0.0435122
0.0436463
0.0436488
0.0435269
0.0434512
0.0436626
0.0435859
0.0433223
0.0436507
0.0436238
0.0400498
0.265376
0.0420363
0.22971
0.0435157
0.0436201
0.0436506
0.2649
0.0397268
0.230637
0.0417685
0.0435084
0.0436489
0.0436465
0.0434708
0.0435236
0.0437042
0.0436593
0.0435162
0.0436461
0.0436564
0.0435165
0.0435164
0.0436536
0.0436557
0.0436933
0.0438352
0.0438393
0.0436971
0.0437033
0.0438468
0.0438488
0.0436957
0.0438395
0.0438408
0.0437089
0.0436984
0.0438511
0.043908
0.0436952
0.0438413
0.0438435
0.0426578
0.191935
0.0439568
0.0528384
0.0436969
0.0438436
0.0438411
0.193004
0.0427363
0.0529983
0.0440101
0.0436938
0.0438407
0.0438397
0.043782
0.0437057
0.0439136
0.0438501
0.0437044
0.0438393
0.0438526
0.0437004
0.0437043
0.0438459
0.0438491
0.0438893
0.0440412
0.0440438
0.0438973
0.0438997
0.044053
0.0440543
0.0438908
0.0440441
0.0440455
0.0439006
0.043955
0.044055
0.0440911
0.0438923
0.044046
0.0440471
0.0440355
0.0398996
0.044122
0.0446356
0.0438911
0.0440471
0.0440458
0.0397711
0.0440317
0.0446448
0.044123
0.0438898
0.0440454
0.0440443
0.0439516
0.0438997
0.0440923
0.0440539
0.0439034
0.0440439
0.0440601
0.0438957
0.0438963
0.0440505
0.044053
0.0440967
0.0442583
0.0442604
0.0441061
0.0441073
0.0442696
0.0442668
0.0440986
0.0442608
0.0442624
0.0441082
0.0441424
0.0442706
0.044305
0.0441004
0.044263
0.0442646
0.044172
0.0446236
0.0443337
0.0434832
0.0440989
0.0442646
0.0442628
0.0446391
0.0441729
0.043525
0.0443342
0.0440973
0.0442622
0.044261
0.0441433
0.0441071
0.0443059
0.0442707
0.0441133
0.0442606
0.0442753
0.0441035
0.0441078
0.0442671
0.0442697
0.0443166
0.0444948
0.044491
0.0443265
0.0443106
0.0445011
0.0445165
0.0443185
0.0444911
0.0444925
0.0443127
0.0443694
0.0445161
0.0445785
0.0443206
0.0444932
0.0444935
0.044389
0.0390834
0.044609
0.0382916
0.044319
0.0444935
0.0444929
0.0391828
0.0443904
0.0391191
0.0446105
0.0443172
0.0444923
0.0444913
0.0443706
0.0443129
0.0445796
0.0445163
0.0443318
0.0444912
0.0445064
0.0443109
0.0443263
0.0445179
0.0445012
0.0445515
0.0447451
0.0447401
0.0445613
0.0445476
0.0447482
0.0447612
0.0445523
0.0447392
0.0447381
0.0445461
0.0446088
0.0447628
0.0448156
0.0445531
0.0447386
0.044739
0.04464
0.0424023
0.0448387
0.0362656
0.0445527
0.0447391
0.0447382
0.0436306
0.0446415
0.0362653
0.0448393
0.0445515
0.0447379
0.0447396
0.0446098
0.0445463
0.0448158
0.0447629
0.0445594
0.0447404
0.0447453
0.044548
0.0445614
0.0447614
0.0447485
0.0448052
0.0450095
0.0450067
0.0448128
0.0447934
0.0450133
0.0450318
0.0448023
0.0450061
0.045004
0.0447949
0.044846
0.0450341
0.0450849
0.0448031
0.0450037
0.0450033
0.0448675
0.0429546
0.0450918
0.0453175
0.0448022
0.0450033
0.0450031
0.0429601
0.044868
0.045317
0.045092
0.0448045
0.0450036
0.0450063
0.0448461
0.0447951
0.0450853
0.0450342
0.0448098
0.0450069
0.0450092
0.0447937
0.0448131
0.0450319
0.0450135
0.0450761
0.0452971
0.0452959
0.045082
0.0450666
0.0452992
0.0453196
0.0450737
0.0452952
0.0452915
0.0450678
0.0451001
0.0453205
0.0453631
0.045073
0.0452913
0.0452905
0.0451083
0.0453437
0.0453709
0.0455241
0.0450729
0.0452907
0.0452906
0.0453371
0.0451085
0.0455244
0.045371
0.0450756
0.045291
0.0452954
0.0451005
0.0450679
0.0453635
0.0453206
0.0450789
0.0452961
0.0452967
0.0450667
0.0450823
0.0453196
0.0452996
0.0453726
0.0456102
0.0456092
0.045375
0.045358
0.0456111
0.0456325
0.0453684
0.045609
0.0456082
0.0453582
0.0453817
0.0456327
0.0456676
0.0453675
0.045608
0.0456075
0.0453896
0.0455433
0.0456719
0.0457627
0.0453674
0.0456076
0.0456072
0.0455436
0.0453897
0.0457626
0.0456724
0.0453724
0.0456077
0.0456092
0.0453821
0.0453583
0.0456677
0.0456329
0.0453729
0.0456095
0.0456098
0.045358
0.0453754
0.0456324
0.0456116
0.0456918
0.0459554
0.045956
0.0456936
0.0456739
0.0459537
0.0459778
0.0456916
0.0459564
0.045958
0.045673
0.0456868
0.0459786
0.0460029
0.0456913
0.0459592
0.0459618
0.0456909
0.0457779
0.0460039
0.0460236
0.0456909
0.0459618
0.0459611
0.0457778
0.0456913
0.0460235
0.0460044
0.0456918
0.0459609
0.0459574
0.0456869
0.0456732
0.0460032
0.0459792
0.0456929
0.0459566
0.045955
0.0456738
0.0456941
0.0459786
0.045955
0.0460478
0.0463359
0.0463403
0.0460443
0.046025
0.0463321
0.0463601
0.0460518
0.0463415
0.0463434
0.046025
0.0460259
0.0463606
0.0463712
0.0460563
0.0463443
0.0463439
0.046027
0.0460437
0.0463716
0.0463748
0.0460557
0.0463445
0.0463432
0.0460437
0.0460275
0.0463746
0.0463724
0.0460505
0.0463428
0.0463418
0.0460267
0.0460261
0.0463715
0.0463607
0.0460459
0.0463403
0.0463351
0.0460242
0.0460455
0.0463599
0.0463324
0.0464413
0.0467579
0.0467613
0.0464336
0.0464101
0.0467492
0.0467858
0.0464452
0.0467639
0.0467676
0.0464095
0.0464216
0.0467895
0.0467957
0.0464455
0.0467683
0.0467672
0.0464218
0.0464247
0.0467957
0.046779
0.0464449
0.0467672
0.0467673
0.0464247
0.0464227
0.046779
0.0467964
0.0464425
0.0467664
0.0467633
0.0464219
0.0464121
0.0467954
0.0467856
0.0464353
0.0467612
0.0467546
0.0464108
0.0464336
0.0467858
0.0467498
0.0468759
0.0472375
0.0472386
0.0468643
0.0468757
0.0472287
0.0472368
0.0468813
0.0472403
0.0472429
0.0468769
0.0468812
0.047238
0.0472231
0.0468812
0.047241
0.0472381
0.0468769
0.0468662
0.0472215
0.0472215
0.0468802
0.047238
0.0472397
0.0468662
0.0468771
0.0472215
0.0472216
0.0468766
0.0472401
0.0472382
0.0468782
0.0468736
0.047223
0.0472345
0.0468688
0.0472375
0.0472338
0.0468724
0.0468657
0.0472322
0.0472288
0.0473675
0.0477801
0.0477776
0.0473551
0.0473651
0.047772
0.0477635
0.0473692
0.0477744
0.0477629
0.0473632
0.0473496
0.0477622
0.0477622
0.0473607
0.0477628
0.0477628
0.0473496
0.0473496
0.0477622
0.0477622
0.0473626
0.0477628
0.0477628
0.0473496
0.0473496
0.0477622
0.0477622
0.0473654
0.0477629
0.0477748
0.0473496
0.0473616
0.0477622
0.0477622
0.047363
0.0477787
0.0477782
0.0473622
0.0473543
0.0477634
0.0477703
0.0479223
0.0483245
0.0483227
0.0479166
0.0479109
0.0483219
0.0483218
0.0479116
0.0483219
0.0483219
0.047911
0.047911
0.0483218
0.0483218
0.0479116
0.0483219
0.0483218
0.047911
0.047911
0.0483218
0.0483218
0.0479116
0.0483218
0.0483219
0.047911
0.047911
0.0483218
0.0483218
0.047917
0.0483219
0.0483219
0.047911
0.047911
0.0483218
0.0483218
0.0479251
0.0483235
0.0483247
0.0479108
0.0479156
0.0483219
0.048322
0.0433496
0.0434732
0.0434851
0.0433495
0.0433632
0.0434789
0.0434932
0.0432425
0.0435028
0.0416888
0.0433967
0.0441642
0.043525
0.0442847
0.239224
0.0453491
0.276584
0.0456003
0.121005
0.0457586
0.141221
0.0425773
0.272935
0.0460276
0.124691
0.0455919
0.144
0.0457586
0.0433622
0.042019
0.0434943
0.0441457
0.0433931
0.0442867
0.0435245
0.0433597
0.043478
0.0434957
0.0433624
0.0433497
0.0434932
0.0434791
0.0435295
0.0436555
0.0436653
0.0435232
0.0435378
0.0436598
0.0436746
0.0409308
0.0436805
0.0399948
0.0435686
0.0443347
0.0437038
0.0444865
0.289975
0.0489798
0.330538
0.0458124
0.148173
0.0460035
0.178065
0.0483151
0.327007
0.0495961
0.150535
0.0458126
0.177829
0.0460018
0.0435385
0.0403478
0.0436731
0.044335
0.0435687
0.0444882
0.043704
0.0435413
0.0436591
0.0436743
0.0435378
0.0435233
0.0436747
0.0436599
0.0437118
0.043849
0.0438559
0.0437067
0.0437216
0.0438518
0.0438665
0.0408735
0.0438648
0.0437712
0.0437501
0.0445392
0.0438938
0.0446995
0.33
0.0426107
0.205039
0.0460886
0.190895
0.0463682
0.220119
0.0469663
0.205152
0.0425638
0.189617
0.0460871
0.216474
0.0463756
0.0437184
0.0438341
0.0438607
0.044541
0.0437504
0.044701
0.0438941
0.0437219
0.0438506
0.0438619
0.0437216
0.0437067
0.0438666
0.0438518
0.0439056
0.0440538
0.0440596
0.0439016
0.0439164
0.0440557
0.0440728
0.0441089
0.0440656
0.0441772
0.0439434
0.0447543
0.0440974
0.0449312
0.127678
0.0443716
0.0345794
0.0464506
0.222344
0.0467236
0.230485
0.0435779
0.0337867
0.0443766
0.218241
0.0464617
0.224588
0.0467379
0.0439099
0.0441812
0.044063
0.0447561
0.0439437
0.044934
0.0440977
0.0438916
0.0440543
0.0440523
0.0439165
0.0439016
0.0440729
0.0440557
0.0441126
0.0442708
0.0442736
0.0441087
0.0441265
0.0442726
0.0442904
0.0442277
0.0442793
0.0443894
0.0441521
0.0449925
0.0443166
0.0451764
0.0457439
0.0445331
0.0843874
0.0468258
0.238675
0.047109
0.235809
0.0443704
0.0832164
0.0445422
0.23167
0.0468391
0.224013
0.0471182
0.0441158
0.0443926
0.0442807
0.0449954
0.0441524
0.0451775
0.0443168
0.0441062
0.0442741
0.0442708
0.0441265
0.0441087
0.0442905
0.0442726
0.0443139
0.0445018
0.0445199
0.044329
0.0443362
0.0445037
0.0445403
0.0444134
0.044519
0.0446346
0.0443458
0.0455264
0.044552
0.0456392
0.0504213
0.044703
0.215017
0.0462766
0.238912
0.0464731
0.103588
0.0444509
0.21494
0.0447088
0.23011
0.0462782
0.0997443
0.0464729
0.0443149
0.0446369
0.044519
0.045527
0.0443462
0.0456378
0.0445523
0.0443271
0.0445198
0.0445018
0.0443365
0.0443289
0.0445405
0.0445036
0.0445491
0.0447491
0.0447629
0.0445639
0.0445703
0.0447509
0.0447877
0.0446652
0.044765
0.0448614
0.044582
0.0456578
0.0447988
0.0458372
0.236109
0.0449123
0.0614409
0.0464818
0.11172
0.0466617
0.212037
0.0447408
0.0624655
0.044914
0.108225
0.0464822
0.209193
0.0466712
0.0445489
0.0448617
0.044765
0.0456568
0.0445823
0.0458408
0.0447992
0.0445621
0.0447629
0.0447491
0.0445705
0.0445639
0.044788
0.0447509
0.0447951
0.0450149
0.045034
0.0448155
0.0448199
0.0450166
0.0450541
0.0448901
0.0450383
0.0451066
0.044831
0.0458752
0.0450646
0.0463874
0.0368568
0.0451189
0.0457938
0.0467094
0.234953
0.0468571
0.0465032
0.0449385
0.045791
0.0451198
0.231862
0.0467202
0.0317508
0.0468619
0.0447971
0.0451068
0.0450384
0.0458795
0.0448313
0.0463914
0.0450649
0.0448137
0.0450341
0.0450149
0.0448202
0.0448155
0.0450543
0.0450166
0.0450686
0.0453002
0.0453214
0.0450862
0.0450888
0.0453033
0.0453404
0.0451227
0.0453225
0.045379
0.0450993
0.0464033
0.0453502
0.0465331
0.0459777
0.0453893
0.0456477
0.0468719
0.0307157
0.0469508
0.030958
0.0451357
0.0456476
0.04539
0.0173961
0.0468764
0.024553
0.0469609
0.0450704
0.0453792
0.0453228
0.0464072
0.0450996
0.046541
0.0453504
0.0450844
0.0453217
0.0453002
0.045089
0.0450862
0.0453405
0.0453033
0.0453599
0.0456121
0.0456346
0.0453786
0.0453775
0.0456142
0.0456461
0.0453976
0.0456357
0.0456766
0.0453872
0.0465556
0.0456529
0.0465148
0.0456656
0.045683
0.0458328
0.046978
0.0237859
0.0468854
0.0150175
0.0454087
0.0458324
0.0456844
0.0180597
0.0469883
0.0148984
0.0468971
0.0453606
0.0456774
0.0456362
0.0465637
0.0453874
0.046522
0.045653
0.0453759
0.0456352
0.0456121
0.0453776
0.0453786
0.0456462
0.0456142
0.0456754
0.0459547
0.0459774
0.0456962
0.0456859
0.0459541
0.0459785
0.0456948
0.0459779
0.046005
0.0456921
0.0464853
0.0459804
0.0460795
0.0458439
0.0460066
0.0460315
0.0468368
0.0163601
0.0461037
0.0278055
0.0457026
0.0460317
0.0460072
0.016107
0.0468479
0.0278069
0.0461038
0.0456765
0.0460059
0.0459795
0.0464921
0.0456922
0.0460796
0.0459804
0.0456946
0.0459794
0.0459555
0.0456859
0.0456962
0.0459785
0.045954
0.046023
0.0463314
0.0463595
0.0460443
0.0460229
0.04633
0.0463537
0.0460278
0.0463593
0.0463716
0.0460243
0.0460827
0.0463538
0.0463549
0.0460498
0.0463717
0.0463741
0.0461006
0.0365089
0.0463553
0.0463581
0.04603
0.0463741
0.0463726
0.0364897
0.0461006
0.0463581
0.0463553
0.046025
0.0463707
0.046361
0.0460827
0.0460243
0.0463549
0.0463538
0.046046
0.0463606
0.0463328
0.0460229
0.0460443
0.0463537
0.04633
0.0464077
0.0467495
0.0467845
0.0464304
0.0464038
0.0467494
0.0467761
0.0464219
0.0467868
0.0467923
0.0464038
0.0464043
0.046776
0.0467758
0.046424
0.0467889
0.0467763
0.0464045
0.0464059
0.0467757
0.0467756
0.0464228
0.0467763
0.0467919
0.0464059
0.0464045
0.0467756
0.0467757
0.0464125
0.0467929
0.0467858
0.0464043
0.0464038
0.0467758
0.046776
0.0464339
0.0467862
0.0467493
0.0464038
0.0464304
0.0467761
0.0467494
0.0468687
0.047223
0.0472274
0.0468621
0.046862
0.047222
0.0472216
0.0468722
0.0472288
0.0472215
0.046862
0.0468617
0.0472215
0.0472214
0.0468618
0.0472215
0.0472214
0.0468617
0.0468616
0.0472214
0.0472213
0.0468679
0.0472214
0.0472215
0.0468616
0.0468617
0.0472213
0.0472214
0.0468721
0.0472215
0.0472283
0.0468617
0.046862
0.0472214
0.0472215
0.046863
0.0472269
0.0472243
0.046862
0.0468621
0.0472216
0.047222
0.047357
0.0477664
0.0477622
0.0473501
0.0473496
0.0477627
0.0477622
0.0473496
0.0477622
0.0477622
0.0473496
0.0473495
0.0477622
0.0477622
0.0473495
0.0477622
0.0477622
0.0473495
0.0473495
0.0477622
0.0477621
0.0473496
0.0477622
0.0477622
0.0473495
0.0473495
0.0477621
0.0477622
0.0473548
0.0477622
0.0477622
0.0473495
0.0473496
0.0477622
0.0477622
0.047351
0.0477622
0.0477644
0.0473496
0.0473501
0.0477622
0.0477627
0.047911
0.0483219
0.0483218
0.0479114
0.047911
0.0483219
0.0483218
0.047911
0.0483218
0.0483218
0.047911
0.047911
0.0483218
0.0483218
0.047911
0.0483218
0.0483218
0.0479109
0.0479109
0.0483218
0.0483218
0.047911
0.0483218
0.0483218
0.0479109
0.0479109
0.0483218
0.0483218
0.047911
0.0483218
0.0483218
0.047911
0.047911
0.0483218
0.0483218
0.0479115
0.0483218
0.0483219
0.047911
0.0479114
0.0483218
0.0483219
0.0433636
0.0434783
0.0434942
0.0433351
0.0433458
0.0434667
0.0434764
0.0441049
0.0435219
0.0441903
0.0433525
0.0434197
0.0434824
0.0435597
0.176944
0.0455225
0.179503
0.0426795
0.0656886
0.0436627
0.0439915
0.0452803
0.179158
0.045496
0.0636149
0.0427422
0.0432122
0.0436534
0.0433915
0.0441814
0.0435214
0.0434348
0.0433483
0.0435458
0.0434803
0.0433477
0.0434939
0.0434777
0.0433426
0.0433419
0.0434764
0.0434733
0.0435389
0.0436597
0.0436763
0.0435116
0.0435212
0.0436496
0.0436597
0.044232
0.0437027
0.0443855
0.0435272
0.0435992
0.0436642
0.0437484
0.179001
0.0458047
0.17695
0.0436764
0.0538702
0.0437978
0.0992131
0.0455433
0.17965
0.0457918
0.0527033
0.043658
0.0988025
0.0437808
0.0435657
0.0443813
0.0437024
0.0435904
0.043526
0.0437413
0.0436642
0.0435222
0.0436762
0.0436593
0.0435213
0.043518
0.0436597
0.0436556
0.0437234
0.043852
0.0438688
0.0436969
0.0437071
0.0438429
0.0438508
0.0444436
0.0438944
0.0446304
0.0437117
0.0438017
0.0438572
0.0439647
0.177382
0.0462888
0.190027
0.0438161
0.121312
0.0436812
0.180674
0.0459002
0.190462
0.0462662
0.120841
0.0437979
0.180236
0.0436692
0.0437493
0.0446272
0.0438943
0.0437954
0.0437117
0.0439634
0.0438571
0.0437063
0.0438687
0.0438516
0.0437064
0.0437027
0.0438508
0.0438482
0.0439187
0.044056
0.0440729
0.0438931
0.0439017
0.0440479
0.0440554
0.0446943
0.0440982
0.044887
0.0439083
0.04402
0.044062
0.0441724
0.198076
0.0467076
0.229702
0.0435933
0.196635
0.0436122
0.222308
0.0463831
0.227477
0.0466796
0.196164
0.0435821
0.221291
0.043627
0.0439442
0.0448835
0.0440982
0.0440184
0.0439082
0.0441705
0.0440624
0.0439015
0.0440729
0.0440557
0.0439017
0.0438981
0.0440561
0.0440526
0.0441258
0.0442729
0.0442895
0.0441011
0.0441091
0.0442649
0.0442746
0.0449488
0.0443143
0.0451191
0.0441154
0.044226
0.0442804
0.0443681
0.23925
0.0470694
0.239974
0.043814
0.217581
0.0445249
0.133666
0.0467653
0.234816
0.0470261
0.216195
0.0438377
0.130895
0.0444957
0.044151
0.0451139
0.0443143
0.0442237
0.044117
0.0443669
0.0442802
0.0441086
0.0442896
0.0442725
0.0441109
0.0441056
0.0442746
0.044269
0.0443376
0.0445039
0.0445412
0.0443215
0.0443153
0.044497
0.0445166
0.0454998
0.0445536
0.0455888
0.0443167
0.0443845
0.0445185
0.0445623
0.236128
0.0464761
0.163172
0.0444034
0.0175975
0.0445776
0.0447042
0.0462969
0.155952
0.0464543
0.0179297
0.0444048
0.0446825
0.0445774
0.0443484
0.0455828
0.0445535
0.0443826
0.0443167
0.0445616
0.0445188
0.0443289
0.0445412
0.0445036
0.0443153
0.0443255
0.0445165
0.0445005
0.0445713
0.044751
0.0447884
0.0445575
0.0445467
0.0447454
0.0447641
0.0456091
0.0448
0.0458078
0.0445485
0.0445908
0.0447658
0.0448033
0.168291
0.0467297
0.211379
0.0446056
0.0447126
0.0448194
0.0437594
0.0464701
0.204475
0.0467214
0.0447045
0.0446056
0.0440044
0.0448189
0.0445835
0.0458058
0.0448
0.044591
0.0445473
0.0448092
0.0447662
0.0445638
0.0447884
0.0447508
0.0445455
0.0445609
0.0447647
0.0447482
0.0448205
0.0450166
0.0450543
0.0448104
0.0447963
0.0450138
0.0450322
0.0458459
0.0450651
0.0463162
0.0447979
0.0448339
0.0450339
0.0450686
0.218608
0.0467723
0.0699824
0.0448519
0.0438496
0.0450731
0.0451639
0.0467749
0.0438127
0.0467755
0.044146
0.0448517
0.0451637
0.0450671
0.044832
0.0463222
0.0450652
0.0448419
0.0447985
0.0450626
0.0450343
0.0448154