/*--------------------------------*- C++ -*----------------------------------*\
| =========                 |                                                 |
| \\      /  F ield         | OpenFOAM: The Open Source CFD Toolbox           |
|  \\    /   O peration     | Version:  2206                                  |
|   \\  /    A nd           | Website:  www.openfoam.com                      |
|    \\/     M anipulation  |                                                 |
\*---------------------------------------------------------------------------*/
FoamFile
{
    version     2.0;
    format      ascii;
    arch        "LSB;label=32;scalar=64";
    class       volScalarField;
    location    "800";
    object      omega;
}
// * * * * * * * * * * * * * * * * * * * * * * * * * * * * * * * * * * * * * //

dimensions      [0 0 -1 0 0 0 0];

internalField   nonuniform List<scalar> 
187974
(
7.50979
7.04463
6.97218
6.75795
6.76048
6.97852
7.03808
7.53997
7.87257
7.29139
7.28841
7.22407
7.22156
7.28856
7.28839
7.90865
8.09511
7.57426
7.61938
7.55574
7.55691
7.61135
7.55509
8.13572
8.33898
8.01099
8.04124
7.97462
7.97495
8.03333
7.99004
8.38589
8.66257
8.46174
8.49731
8.43338
8.43403
8.49197
8.43949
8.71548
9.03173
8.90599
8.93618
8.91698
8.91786
8.93811
8.88739
9.08869
9.44198
9.30627
9.33911
9.39404
9.39501
9.34407
9.28905
9.49815
9.90439
9.77371
9.81331
9.83691
9.83789
9.81661
9.75268
9.97533
10.4132
10.3307
10.3595
10.359
10.3598
10.3621
10.3051
10.5213
11.0114
10.9387
10.9647
10.9725
10.9725
10.9683
10.9066
11.1125
11.7141
11.6359
11.6786
11.688
11.6879
11.6802
11.6191
11.7975
12.5074
12.4587
12.4967
12.5092
12.5088
12.4959
12.4213
12.6226
13.532
13.4657
13.4576
13.4562
13.4561
13.4582
13.4256
13.6597
14.7164
14.639
14.6433
14.6478
14.6483
14.6465
14.5971
14.8549
16.1296
16.045
16.0503
16.053
16.0539
16.053
16.0103
16.2517
17.8374
17.7505
17.7545
17.7559
17.7561
17.7556
17.7597
17.8313
19.851
19.8647
19.8654
19.8649
19.8648
19.8653
19.8674
19.8906
22.5558
22.5419
22.5442
22.545
22.545
22.5442
22.542
22.55
26.0384
26.0251
26.0263
26.0265
26.0265
26.0263
26.0249
26.0399
30.6117
30.6009
30.6013
30.6017
30.6017
30.6013
30.6007
30.6119
7.61669
6.65523
6.7223
6.75603
6.75564
6.72018
6.64622
7.60068
8.04928
7.14626
7.18637
7.19753
7.19782
7.18516
7.13985
8.01449
8.91712
7.33951
7.38469
7.40092
7.40083
7.38655
7.34223
6.87098
9.27406
7.74545
7.74267
7.7451
7.74518
7.74241
7.74601
7.49533
9.72108
8.07245
8.07788
8.10371
8.10251
8.07281
8.08422
7.95031
10.2381
8.41292
8.42433
8.44019
8.43333
8.39536
8.43363
8.37945
10.6644
8.88835
8.90313
8.79805
8.78545
8.8408
8.90513
8.85429
10.9602
9.43315
9.434
9.33038
9.32241
9.37406
9.447
9.39878
11.2837
10.019
10.0047
9.95934
9.96003
9.95646
10.0224
9.96994
11.6857
10.6521
10.6714
10.6684
10.6665
10.6657
10.6633
10.6035
12.1068
11.4123
11.4055
11.405
11.4049
11.4045
11.4029
11.3905
12.5498
12.2405
12.2343
12.2336
12.234
12.233
12.2388
12.2125
13.1779
13.2004
13.1973
13.1956
13.1953
13.1955
13.1999
13.1682
14.3255
14.3223
14.3238
14.328
14.329
14.328
14.3234
14.2825
15.6604
15.6633
15.6725
15.6849
15.6903
15.6887
15.6791
15.62
17.2631
17.2777
17.2937
17.2986
17.2987
17.2972
17.2923
17.2345
19.2397
19.2597
19.2726
19.2744
19.2739
19.2729
19.2673
19.2137
21.7335
21.7538
21.7624
21.7654
21.7651
21.7634
21.758
21.7426
24.9734
24.9822
24.9755
24.9762
24.9765
24.9746
24.9901
24.9659
30.6536
30.6405
30.6334
30.6336
30.6336
30.6335
30.6436
30.65
8.22796
6.75149
6.76335
6.96875
6.96241
6.7631
6.75073
8.23357
8.66698
7.09928
7.11418
7.09428
7.09399
7.11523
7.11483
8.67529
10.637
7.39167
7.40824
7.41011
7.40347
7.40908
7.40788
6.93711
10.5387
7.67388
7.7021
7.70333
7.69866
7.70224
7.70219
7.48901
10.6927
8.04067
8.0698
8.07086
8.0648
8.06976
8.06994
7.85429
10.9091
8.44268
8.47444
8.47496
8.47394
8.47414
8.47462
8.22979
11.1694
8.88696
8.92214
8.92321
8.92251
8.92223
8.92227
8.66024
11.3547
9.38154
9.41945
9.42132
9.42096
9.42006
9.41945
9.32936
11.6754
9.93635
9.97367
9.9758
9.97534
9.97435
9.97369
10.0406
11.9734
10.6187
10.5969
10.5978
10.5969
10.5962
10.5987
10.6915
12.1654
11.3193
11.3095
11.3016
11.3
11.3004
11.3137
11.4165
12.6963
12.1316
12.1221
12.1128
12.1085
12.1121
12.1253
12.2449
13.314
13.0771
13.0724
13.0548
13.0511
13.055
13.075
13.2042
14.3345
14.177
14.1701
14.1676
14.1648
14.1665
14.1725
14.3265
15.66
15.4881
15.4957
15.5147
15.524
15.5215
15.4977
15.6604
17.2637
17.0619
17.0897
17.1054
17.1043
17.0978
17.0842
17.2655
19.2391
18.9954
19.0231
19.0418
19.0395
19.0318
19.0107
19.2362
21.7513
21.4266
21.4424
21.416
21.3984
21.4247
21.4252
21.7414
24.9739
24.5211
24.4649
24.4352
24.4351
24.435
24.5049
24.9474
30.633
29.2207
29.22
29.22
29.22
29.2201
29.2195
30.6327
8.31018
6.72031
6.7771
9.11144
9.0693
6.77721
6.74642
8.27814
8.69105
7.09979
7.12161
7.4468
13.39
7.13883
7.1167
8.70618
10.5326
7.40015
7.42234
8.45569
15.1145
7.44012
7.40973
7.00852
10.4349
7.71003
7.71351
8.01595
18.0929
7.74856
7.70477
7.5595
10.5672
8.07844
8.09014
9.03271
20.2105
8.07392
8.07282
7.95486
10.7455
8.48458
8.49374
9.17772
19.7476
8.45143
8.47787
8.38072
10.9571
8.93289
8.93779
8.94111
11.1688
8.94081
8.9266
8.93108
11.2002
9.43228
9.43335
9.45654
10.7212
9.43939
9.42602
9.44548
11.4819
9.99133
9.94418
9.96492
12.5116
9.95999
9.94751
10.0188
11.8134
10.6205
10.5637
10.5995
30.7171
10.5879
10.5719
10.6675
12.2096
11.3335
11.2625
11.2862
11.5386
11.2791
11.2648
11.4066
12.7252
12.1479
12.0803
12.0452
12.1155
12.044
12.0832
12.2505
13.3587
13.0828
13.009
12.9618
13.0108
12.9612
13.0159
13.2075
14.3374
14.1794
14.0975
14.0564
14.0808
14.057
14.1035
14.3274
15.6599
15.4837
15.3955
15.3871
15.4124
15.3891
15.4007
15.6587
17.2602
17.0484
16.9331
17.0002
17.0076
16.9978
16.9607
17.2582
19.2296
18.9555
18.982
18.9745
18.948
19.0044
18.9982
19.2193
21.7013
21.3447
21.3719
21.3423
21.3421
21.3424
21.3775
21.6982
24.919
24.4414
24.4327
24.4325
24.4325
24.4326
24.4327
24.908
30.6253
29.2201
29.22
29.22
29.22
29.22
29.22
30.6253
8.2525
6.75176
6.78647
10.4812
10.4648
6.78442
6.68912
8.32268
8.64973
7.10056
7.13169
8.27044
13.3606
7.161
7.13625
8.64081
10.5737
7.41421
7.42825
8.78425
13.9365
7.45601
7.4228
7.129
10.4697
7.70253
7.72098
7.89178
16.7492
7.779
7.71804
7.67483
10.5964
8.07337
8.09049
8.2734
19.2747
8.15187
8.08734
8.05904
10.7643
8.48101
8.49685
8.7171
21.9059
8.56885
8.4935
8.47087
10.9684
8.93085
8.94563
9.21618
24.9819
9.03082
8.94219
8.92659
11.2117
9.43061
9.44433
9.77365
29.3794
9.54229
9.44084
9.43513
11.4978
9.98965
9.96388
10.2214
34.2134
10.1142
9.96234
10.0068
11.8311
10.6192
10.5881
10.8699
45.7734
10.7396
10.5861
10.6549
12.2241
11.3327
11.2948
11.6185
58.7143
11.4636
11.2927
11.3946
12.7064
12.1478
12.1023
12.3899
77.434
12.3082
12.1
12.2429
13.3073
13.0872
13.0324
13.3194
125.963
13.2394
13.0301
13.2062
14.3346
14.1821
14.1109
14.343
14.2609
14.1098
14.3269
15.6573
15.4782
15.3856
15.3478
15.5992
15.3453
15.3864
15.6535
17.2577
17.0382
16.9264
16.9213
16.9184
16.9221
16.9271
17.2528
19.2245
18.9495
18.9491
18.9475
18.9468
18.9479
18.9496
19.218
21.6992
21.3437
21.3425
21.342
21.3418
21.3421
21.3427
21.6906
24.9165
24.4337
24.4326
24.4325
24.4324
24.4325
24.4327
24.9055
30.6253
29.2201
29.22
29.22
29.22
29.22
29.22
30.6253
7.66466
6.75691
6.76297
7.17966
7.17422
6.76271
6.75829
7.66066
8.32473
7.10619
7.11352
7.11579
8.38563
7.11281
7.1136
8.32368
10.7061
7.39897
7.40799
7.41522
7.74306
7.40752
7.40679
7.13771
10.4115
7.70572
7.707
7.70091
7.68201
7.70144
7.70224
7.65867
10.6098
8.07479
8.08165
8.07424
8.03995
8.07153
8.0758
8.10112
10.8042
8.48189
8.49077
8.48873
8.50835
8.48084
8.48664
8.51838
11.0418
8.92947
8.93623
8.93867
9.51881
8.93202
8.93548
8.97137
11.3378
9.42706
9.43436
9.43988
9.85559
9.43216
9.43802
9.47765
11.7932
9.97934
9.95451
9.95314
9.84553
9.94982
9.9533
10.0322
11.9379
10.6059
10.5716
10.5698
10.5745
10.5698
10.5623
10.6693
12.4558
11.32
11.2742
11.2683
11.2754
11.2797
11.2761
11.3958
12.7303
12.1394
12.08
12.035
12.0386
12.0333
12.0825
12.2508
13.3111
13.0808
13.0087
12.9678
12.9584
12.9647
13.0097
13.2047
14.3364
14.1779
14.102
14.0616
14.0529
14.0598
14.1004
14.3258
15.6619
15.4812
15.4008
15.3983
15.394
15.3952
15.4083
15.6557
17.2659
17.0526
16.9667
17.0188
17.0122
17.0047
16.9616
17.2636
19.2488
18.9724
19.0003
19.0012
18.9608
19.0202
18.9996
19.2438
21.7102
21.3853
21.3496
21.3426
21.3425
21.3426
21.3707
21.7074
24.9238
24.4625
24.4422
24.4326
24.4326
24.4326
24.4793
24.921
30.6432
29.2329
29.22
29.22
29.22
29.22
29.2193
30.6437
7.16879
6.73817
6.71309
6.72243
6.7312
6.71721
6.73278
7.00313
7.6867
7.17988
7.15054
7.1606
7.17159
7.15848
7.16677
7.57235
8.65755
7.40818
7.41259
7.40708
7.40126
7.40433
7.40129
7.24297
8.86003
7.74944
7.74964
7.74544
7.74278
7.74343
7.74124
7.67956
9.12082
8.1204
8.11355
8.11576
8.11548
8.11604
8.11351
8.05541
9.43608
8.52696
8.52388
8.5256
8.52525
8.52604
8.52302
8.46017
9.83879
8.97909
8.977
8.97856
8.97826
8.97949
8.97613
8.94346
10.3485
9.48349
9.48066
9.48191
9.48197
9.48369
9.48051
9.47752
10.8985
10.0496
10.0445
10.0457
10.0452
10.0476
10.0449
10.0409
11.5771
10.6842
10.6797
10.6807
10.6798
10.6819
10.6794
10.668
11.8934
11.4083
11.4021
11.4006
11.3994
11.4014
11.4026
11.394
12.2459
12.2403
12.2324
12.2285
12.2269
12.2313
12.2365
12.25
13.2096
13.2034
13.1964
13.1929
13.1905
13.1962
13.1973
13.2029
14.3227
14.3247
14.3216
14.3276
14.3256
14.3278
14.3194
14.3241
15.6593
15.6725
15.6851
15.6995
15.6977
15.697
15.6732
15.6611
17.277
17.2979
17.3004
17.3134
17.313
17.3099
17.2943
17.2761
19.2602
19.2773
19.2823
19.2966
19.2976
19.2949
19.2754
19.2556
21.7428
21.7675
21.7838
21.784
21.787
21.7879
21.7709
21.7351
24.9611
25.0089
25.0136
25.001
25.0028
25.0014
25.0155
24.9857
30.6669
30.6649
30.6592
30.6594
30.6594
30.6589
30.6661
30.6603
7.35972
6.7582
6.81187
6.78848
6.78614
6.80092
6.76093
7.58843
7.63328
7.19124
7.2294
7.21501
7.2156
7.22612
7.18409
7.92686
7.91427
7.46596
7.50181
7.49196
7.49266
7.50262
7.46211
8.11643
8.24018
7.81634
7.84696
7.8399
7.84056
7.84857
7.8156
8.39194
8.64398
8.19205
8.21789
8.21323
8.21371
8.21902
8.19469
8.7175
8.95099
8.61263
8.63121
8.62913
8.62982
8.63189
8.6143
9.07727
9.44437
9.07717
9.0926
9.09242
9.09351
9.09371
9.07847
9.46685
9.8587
9.59562
9.61102
9.61163
9.61297
9.6132
9.59723
9.86917
10.349
10.1766
10.1954
10.1961
10.1968
10.1977
10.1795
10.3514
10.9283
10.833
10.856
10.8566
10.8569
10.857
10.8356
10.9256
11.7104
11.5793
11.6063
11.6068
11.6069
11.6061
11.5811
11.7039
12.581
12.4368
12.4665
12.4671
12.4672
12.4663
12.4378
12.573
13.5977
13.4299
13.4654
13.4659
13.466
13.4651
13.4307
13.5876
14.7835
14.6027
14.6455
14.6468
14.647
14.6451
14.6036
14.7713
16.1713
16.0157
16.0527
16.0543
16.0542
16.0522
16.0167
16.1565
17.7572
17.7628
17.755
17.756
17.756
17.7544
17.7635
17.7373
19.8949
19.8608
19.8637
19.8645
19.8645
19.8633
19.8631
19.8733
22.5705
22.5405
22.5434
22.5445
22.5447
22.542
22.5397
22.5487
26.0516
26.0258
26.0263
26.0265
26.0266
26.0232
26.0175
26.0339
30.6079
30.6003
30.6011
30.6014
30.6014
30.6009
30.5998
30.6109
7.70169
7.94588
7.97424
7.68851
7.70335
7.95916
7.98336
7.70261
7.97463
7.97506
7.70468
7.72117
7.9845
7.98846
7.69871
7.97578
7.96934
7.70459
15.6756
7.96919
17.5125
7.70279
7.96907
7.97518
15.6686
7.70767
17.5339
7.96466
7.70245
7.97467
7.97499
7.72337
7.70583
7.99013
7.97871
7.68186
7.97476
7.95462
7.70444
7.67105
7.97737
7.94251
8.06942
8.3386
8.36911
8.05444
8.07858
8.3579
8.37812
8.07018
8.36948
8.36968
8.07959
8.08313
8.37856
8.38296
8.06505
8.37008
8.36835
8.06189
17.6968
8.38648
15.3472
8.07021
8.36832
8.36935
17.7263
8.0563
15.3894
8.36125
8.07017
8.36921
8.36985
8.08305
8.07377
8.38006
8.37245
8.04966
8.36966
8.34837
8.07254
8.0374
8.37172
8.34131
8.47405
8.7715
8.80532
8.48386
8.48288
8.81541
8.81533
8.47463
8.80581
8.80627
8.48322
8.48835
8.81083
8.8146
8.47391
8.80664
8.80586
8.4909
13.6499
8.81867
9.29636
8.4742
8.80591
8.80581
13.6781
8.47423
9.29582
8.81797
8.47482
8.80575
8.80624
8.48436
8.47702
8.81238
8.80908
8.45291
8.80597
8.78305
8.47643
8.44586
8.80874
8.77863
8.92157
9.25291
9.28935
8.93217
8.9342
9.30192
9.30404
8.92275
9.29009
9.29116
8.92708
8.92786
9.2971
9.29673
8.92245
9.29179
9.29132
8.93279
8.95783
9.30044
9.31563
8.92234
9.29138
9.29087
8.95496
8.93307
9.31594
9.30016
8.92259
9.29059
9.29058
8.92847
8.92534
9.29732
9.29486
8.89892
9.29012
9.26693
8.92495
8.90889
9.29479
9.2775
9.41865
9.79279
9.82845
9.43205
9.43387
9.84323
9.83466
9.42064
9.82932
9.83067
9.42741
9.42698
9.83547
9.84101
9.42089
9.83144
9.83098
9.43107
9.45471
9.84606
9.84542
9.42037
9.83107
9.83039
9.45507
9.43085
9.84631
9.8455
9.41995
9.83003
9.82986
9.42742
9.42504
9.84161
9.83584
9.39584
9.8293
9.80813
9.42438
9.40985
9.83496
9.84296
9.97281
10.4226
10.4335
9.99105
9.94352
10.4551
10.4881
9.97501
10.4335
10.4345
9.94383
9.95216
10.4818
10.495
9.97526
10.4353
10.4344
9.95556
9.90739
10.5012
12.6876
9.9747
10.4345
10.434
9.90812
9.9563
12.7268
10.5021
9.97422
10.4337
10.4342
9.95265
9.94401
10.4956
10.482
9.9519
10.4345
10.4323
9.94363
9.99154
10.4909
10.4557
10.5977
11.1313
11.125
10.6195
10.5727
11.145
11.1712
10.597
11.1224
11.1165
10.5633
10.5765
11.1702
11.1791
10.5968
11.1171
11.1155
10.5828
13.1316
11.1831
11.0815
10.5965
11.1156
11.1155
13.1896
10.5836
11.0832
11.1837
10.5976
11.1157
11.1233
10.577
10.5634
11.1793
11.1704
10.6104
11.1263
11.1306
10.5729
10.6201
11.171
11.1458
11.3126
11.917
11.9113
11.3319
11.2642
11.9298
11.9741
11.3013
11.9094
11.9004
11.2631
11.2708
11.9755
11.9827
11.2999
11.8987
11.8946
11.2745
11.2606
11.9829
12.0214
11.2998
11.8948
11.8965
11.2612
11.2752
12.0205
11.9842
11.3104
11.8989
11.9099
11.271
11.2633
11.9838
11.9756
11.3183
11.9125
11.9159
11.2641
11.3327
11.9737
11.9307
12.1242
12.8268
12.8215
12.1407
12.0812
12.8313
12.8861
12.1141
12.8193
12.8045
12.0797
12.0342
12.8845
12.894
12.1083
12.8029
12.7977
12.0365
12.0726
12.8958
12.9248
12.1104
12.7981
12.8004
12.0705
12.0377
12.9249
12.8973
12.1226
12.8027
12.8198
12.0354
12.0796
12.8952
12.8843
12.1303
12.8228
12.8255
12.0807
12.1417
12.8855
12.8325
13.0735
13.8836
13.8789
13.0803
13.0124
13.8852
13.9522
13.0569
13.8784
13.8733
13.0091
12.9554
13.9502
13.982
13.0501
13.8721
13.8679
12.9574
12.9875
13.9826
13.9938
13.0522
13.8684
13.8689
12.9875
12.9588
13.9938
13.9847
13.0729
13.8714
13.879
12.9566
13.0089
13.9829
13.95
13.0757
13.8806
13.8821
13.0117
13.0815
13.9513
13.8867
14.1708
15.1397
15.1417
14.1766
14.0994
15.1332
15.2223
14.1682
15.1437
15.1487
14.0933
14.0541
15.2236
15.2925
14.1643
15.1532
15.1617
14.0546
14.0699
15.2925
15.323
14.1649
15.1618
15.16
14.0699
14.0568
15.323
15.2957
14.1708
15.1597
15.1475
14.0551
14.0933
15.2939
15.2254
14.1754
15.1447
15.1385
14.0984
14.1784
15.2246
15.138
15.4928
16.6437
16.6625
15.4798
15.4035
16.6294
16.7457
15.5082
16.6679
16.6758
15.4024
15.3844
16.7477
16.7888
15.5246
16.6796
16.6776
15.3849
15.4121
16.7901
16.8022
15.523
16.68
16.6745
15.4122
15.388
16.8016
16.7943
15.5037
16.6729
16.6688
15.3871
15.406
16.7899
16.7473
15.4861
16.6629
16.6405
15.4
15.4846
16.7447
16.6302
17.0842
18.4694
18.4864
17.0524
16.9547
18.4319
18.6002
17.1014
18.4989
18.5156
16.9518
17.0004
18.6171
18.6454
17.1026
18.5188
18.5139
17.0014
17.0129
18.6455
18.5692
17.1
18.5142
18.5143
17.0128
17.0058
18.5692
18.6487
17.09
18.5105
18.496
17.0016
16.9624
18.6438
18.5994
17.0582
18.4866
18.455
16.9572
17.0525
18.5999
18.4347
19.0135
20.7656
20.7736
18.9602
19.013
20.7241
20.7657
19.0392
20.7824
20.796
19.0183
19.0388
20.7722
20.697
19.0388
20.7865
20.7718
19.019
18.969
20.6889
20.6886
19.0344
20.7712
20.7799
18.969
19.0198
20.6886
20.689
19.0174
20.7817
20.7716
19.0251
19.0032
20.6965
20.7544
18.9791
20.7679
20.7477
18.9976
18.9665
20.7426
20.7247
21.4336
23.675
23.6631
21.3699
21.423
23.632
23.5848
21.4437
23.6454
23.58
21.4131
21.3427
23.5777
23.5775
21.3988
23.5799
23.5799
21.3425
21.3424
23.5775
23.5774
21.4091
23.5799
23.5799
21.3424
21.3425
23.5774
23.5775
21.4231
23.58
23.6479
21.3427
21.405
23.5775
23.5777
21.4085
23.67
23.6651
21.4077
21.3661
23.5843
23.6226
24.4979
26.9323
26.9205
24.4648
24.4323
26.915
26.9148
24.435
26.915
26.9149
24.4327
24.4326
26.9148
26.9148
24.4351
26.9149
26.9149
24.4326
24.4326
26.9148
26.9148
24.4352
26.9149
26.9149
24.4326
24.4326
26.9148
26.9148
24.4668
26.9149
26.915
24.4326
24.4327
26.9148
26.9148
24.5122
26.926
26.933
24.4316
24.4589
26.9149
26.9154
7.70983
7.98255
7.99118
7.69974
7.71391
7.97525
7.98594
7.75021
7.99489
7.99508
7.72065
7.7898
7.99108
8.06228
18.0998
8.76631
19.7396
7.90621
15.9164
8.18919
17.8583
7.99873
19.716
8.77633
16.2195
7.89924
18.0387
8.18945
7.70832
7.99654
7.98158
7.78216
7.71566
8.06244
7.99011
7.6718
7.97775
7.94852
7.71272
7.69986
7.98637
7.97515
8.08648
8.37942
8.3861
8.0714
8.08149
8.37373
8.38211
8.07569
8.38918
8.34733
8.08514
8.16008
8.38576
8.46603
20.2206
9.31615
20.5956
8.28932
18.537
8.60947
20.5612
9.05505
20.6394
9.31575
18.6917
8.28957
20.6183
8.60919
8.07661
8.34056
8.37657
8.15988
8.08556
8.46564
8.38602
8.04336
8.37333
8.34187
8.08182
8.07126
8.38227
8.3735
8.49094
8.81637
8.82218
8.47942
8.48734
8.81256
8.8192
8.4567
8.82148
8.82196
8.49102
8.57278
8.82285
8.91007
19.8036
8.85944
13.334
8.72345
21.1706
9.0822
22.8224
9.16436
13.3447
8.85274
21.1992
8.72284
22.7917
9.08208
8.48091
8.81991
8.81294
8.57239
8.49111
8.90983
8.82287
8.44593
8.81029
8.78483
8.4874
8.47918
8.8192
8.81235
8.93859
9.30217
9.30741
8.92943
8.93567
9.29929
9.30928
8.94119
9.30338
9.30832
8.93936
9.02894
9.30932
9.40716
11.233
9.32653
9.91834
9.20752
23.5031
9.61066
26.5579
8.94562
9.856
9.32728
23.4526
9.20803
26.4445
9.61245
8.92929
9.30885
9.29775
9.02882
8.93938
9.40738
9.30935
8.93001
9.29497
9.29835
8.93567
8.92925
9.30922
9.29919
9.43729
9.84543
9.84203
9.42951
9.44085
9.84291
9.85291
9.43903
9.83898
9.85366
9.44271
9.54059
9.85662
9.96451
10.7513
9.87562
15.3818
9.75447
27.7913
10.2095
31.2797
9.45758
15.2819
9.87744
27.6727
9.75633
31.2307
10.2111
9.42757
9.85423
9.842
9.54089
9.4427
9.96492
9.85664
9.43041
9.84321
9.8453
9.44081
9.42943
9.85289
9.84288
9.94659
10.4559
10.4913
9.98891
9.96209
10.4539
10.5037
9.95894
10.4824
10.505
9.96351
10.1189
10.5057
10.6655
12.5481
10.5177
29.0491
10.2162
32.6686
10.7857
41.1958
9.9661
29.0294
10.5195
32.8714
10.2166
41.7654
10.7857
9.94462
10.5063
10.4828
10.1191
9.9636
10.6654
10.5058
9.9912
10.4924
10.4558
9.96216
9.98889
10.5038
10.4539
10.5708
11.1464
11.1704
10.6187
10.5859
11.1452
11.1992
10.5866
11.1698
11.1869
10.5879
10.7488
11.2013
11.372
30.6233
11.1955
13.1797
10.8694
42.9246
11.5049
54.8487
10.6014
13.2207
11.1965
43.4462
10.8694
54.9058
11.5062
10.5642
11.1878
11.1703
10.7486
10.588
11.3724
11.2014
10.6203
11.1718
11.1462
10.586
10.6187
11.1992
11.1452
11.2634
11.9338
11.9747
11.3325
11.2926
11.9333
11.9928
11.2783
11.9807
11.9896
11.2947
11.4686
11.9952
12.2663
11.5519
11.992
12.0611
11.6048
55.9305
12.3521
71.2284
11.2872
12.0606
11.9934
55.9215
11.6064
71.4833
12.3528
11.263
11.9908
11.9817
11.4691
11.2948
12.267
11.9952
11.3333
11.9767
11.9336
11.2926
11.3324
11.9929
11.9333
12.0812
12.8339
12.8864
12.1478
12.1
12.8393
12.9064
12.0428
12.8842
12.8982
12.1024
12.3219
12.909
13.1899
12.1163
12.9002
12.9485
12.4081
74.5369
13.2768
118.154
12.0466
12.9485
12.9021
74.3142
12.4088
119.349
13.2788
12.0814
12.8996
12.8857
12.3225
12.1024
13.1914
12.909
12.1477
12.8889
12.8336
12.1001
12.1478
12.9065
12.8393
13.0133
13.8879
13.9548
13.0874
13.0303
13.8918
13.9655
12.9597
13.9539
13.9812
13.0328
13.2548
13.967
14.2028
13.0106
13.9832
14.0053
13.3435
122.557
14.2909
228.752
12.9637
14.0053
13.9858
123.263
13.3456
224.274
14.2935
13.0104
13.9833
13.956
13.2564
13.0328
14.2045
13.967
13.0825
13.9582
13.8877
13.0303
13.0874
13.9655
13.8918
14.0999
15.1367
15.2181
14.1823
14.1099
15.1324
15.2136
14.055
15.2181
15.293
14.1111
14.263
15.2131
15.2631
14.0808
15.2942
15.3242
14.3468
240.814
15.2672
15.6033
14.0591
15.3245
15.2976
236.122
14.3494
15.6033
15.2672
14.0998
15.2977
15.2249
14.2645
14.1112
15.2631
15.2131
14.1795
15.2272
15.1395
14.1099
14.1823
15.2136
15.1324
15.3937
16.6259
16.7422
15.4783
15.3862
16.6195
16.7175
15.3852
16.7409
16.7897
15.3856
15.3452
16.7168
16.7119
15.4121
16.7889
16.7969
15.3479
15.5642
16.7111
16.7076
15.39
16.7966
16.7926
15.5643
15.3478
16.7076
16.7111
15.4002
16.7863
16.7484
15.3452
15.3856
16.7119
16.7168
15.4861
16.7479
16.632
15.3862
15.4783
16.7175
16.6195
16.9438
18.4334
18.5941
17.0384
16.9269
18.4329
18.5558
17.0013
18.6042
18.6294
16.9264
16.9219
18.5555
18.5537
17.0077
18.6139
18.5562
16.9212
16.9182
18.5534
18.5525
17.004
18.5562
18.6276
16.9182
16.9212
18.5525
18.5534
16.9638
18.632
18.6
16.9219
16.9264
18.5538
18.5555
17.0541
18.602
18.4326
16.927
17.0384
18.5558
18.4329
18.9807
20.6957
20.7182
18.9498
18.9496
20.6906
20.6891
18.9969
20.7258
20.6889
18.9491
18.9478
20.6889
20.6883
18.948
20.6885
20.6884
18.9474
18.9468
20.6882
20.6879
18.9766
20.6884
20.6886
18.9468
18.9474
20.6879
20.6882
18.9963
20.6889
20.7233
18.9478
18.9491
20.6883
20.6889
18.9541
20.7156
20.7021
18.9496
18.9498
20.6891
20.6906
21.381
23.6001
23.5776
21.3441
21.3427
23.5791
23.5776
21.3424
23.5776
23.5774
21.3425
21.3421
23.5775
23.5773
21.3421
23.5774
23.5773
21.342
21.3418
23.5773
23.5772
21.3423
23.5773
23.5774
21.3418
21.342
23.5772
23.5773
21.3699
23.5774
23.5776
21.3421
21.3425
23.5773
23.5775
21.3489
23.5778
23.5892
21.3427
21.3441
23.5776
23.5791
24.4327
26.9149
26.9148
24.4341
24.4327
26.9149
26.9148
24.4326
26.9148
26.9147
24.4326
24.4325
26.9148
26.9147
24.4325
26.9147
26.9147
24.4325
24.4324
26.9147
26.9147
24.4325
26.9147
26.9147
24.4324
24.4325
26.9147
26.9147
24.4327
26.9147
26.9148
24.4325
24.4326
26.9147
26.9148
24.4347
26.9148
26.9149
24.4327
24.4341
26.9148
26.9149
7.71806
7.97738
7.99176
7.70229
7.71502
7.97572
7.9887
7.78107
7.99481
8.05554
7.71543
7.7129
7.98931
7.99158
16.7583
8.17266
18.5637
7.7017
8.38061
7.99422
8.60221
7.88497
18.5973
8.16969
8.32124
7.69308
8.52836
7.98868
7.72093
8.05442
7.99477
7.70655
7.70813
7.98276
7.98522
7.702
7.99173
7.97683
7.70876
7.70926
7.98868
7.98307
8.08737
8.37538
8.38829
8.07141
8.08435
8.37292
8.38554
8.1528
8.39155
8.46134
8.08508
8.09031
8.3831
8.39178
19.2125
8.60051
21.147
8.09329
9.24205
8.39913
12.1913
8.27067
21.2573
8.5979
9.15265
8.08541
12.1599
8.39383
8.09043
8.46047
8.39146
8.08117
8.08301
8.38413
8.38321
8.0728
8.38823
8.3748
8.08436
8.07883
8.38552
8.38048
8.49356
8.81403
8.82571
8.47843
8.49091
8.81113
8.81773
8.56964
8.82906
8.91164
8.48862
8.49708
8.8191
8.82773
21.7982
9.08627
24.0257
8.50487
13.5698
8.83187
17.3688
8.71408
24.1006
9.08279
13.5425
8.50038
17.3669
8.83214
8.49675
8.9108
8.82897
8.49081
8.48875
8.82734
8.81924
8.48043
8.82564
8.81347
8.48926
8.48604
8.81766
8.81895
8.94225
9.30049
9.31107
8.92776
8.93602
9.29658
9.30256
9.03156
9.31453
9.41032
8.93754
8.94795
9.30429
9.31856
24.9214
9.62831
28.1282
8.94701
18.426
9.31715
20.1032
9.21206
28.1749
9.62289
18.4283
8.94713
20.0755
9.31762
8.94555
9.40962
9.31449
8.94748
8.9377
9.31778
9.30602
8.93031
9.31104
9.29999
8.93595
8.93568
9.3045
9.30488
9.44086
9.84373
9.85273
9.42622
9.43415
9.8357
9.84971
9.54297
9.85627
9.96116
9.43546
9.4511
9.85069
9.85977
29.3364
10.2195
33.3254
9.45152
19.7351
9.87523
14.5569
9.76727
33.4536
10.2113
19.6749
9.45206
14.3985
9.87372
9.44432
9.96037
9.85629
9.45024
9.43952
9.85877
9.8509
9.43013
9.85273
9.84331
9.43818
9.43471
9.84973
9.84478
9.96229
10.4545
10.5038
9.98109
9.95583
10.4443
10.4901
10.1154
10.5058
10.657
9.95546
9.95761
10.4902
10.4897
34.1314
10.7854
44.1591
9.96023
9.85212
10.492
10.4968
10.2181
44.037
10.7817
9.8395
9.95994
10.4987
10.4924
9.9639
10.6561
10.5058
9.95619
9.95524
10.4889
10.4906
9.98924
10.5038
10.4541
9.95582
9.99032
10.4895
10.4542
10.586
11.1455
11.1992
10.6087
10.572
11.1342
11.1817
10.7405
11.2014
11.3675
10.5721
10.5716
11.1818
11.1819
45.9025
11.5175
57.6744
10.5738
10.5737
11.187
11.1254
10.8666
57.5401
11.5156
10.5767
10.5743
11.1366
11.1879
10.5881
11.3669
11.2015
10.5728
10.5688
11.1942
11.1826
10.6188
11.1993
11.1452
10.5687
10.6188
11.183
11.1448
11.2926
11.9333
11.9928
11.3212
11.2745
11.9249
11.977
11.464
11.9951
12.252
11.2745
11.2731
11.977
11.995
58.893
12.3346
74.3292
11.2823
11.2237
11.9957
11.9939
11.6167
74.0112
12.3352
11.2371
11.2832
11.994
11.983
11.2949
12.2531
11.9952
11.29
11.2758
11.9811
11.978
11.3324
11.9929
11.9331
11.2763
11.3319
11.9781
11.934
12.0999
12.8391
12.9062
12.1383
12.0816
12.8316
12.8865
12.3071
12.9087
13.1729
12.0816
12.0482
12.8842
12.9062
77.8899
13.2539
123.042
12.049
12.0471
12.9072
12.9006
12.3905
122.159
13.2563
12.0474
12.0364
12.9006
12.9062
12.1023
13.1751
12.9087
12.0342
12.0824
12.9104
12.884
12.1476
12.9063
12.839
12.0826
12.1483
12.8863
12.8329
13.03
13.8916
13.9653
13.0821
13.0101
13.8875
13.9585
13.2371
13.9667
14.1982
13.0075
12.968
13.9557
13.9878
127.415
14.2845
291.264
12.97
12.9626
13.9913
13.9805
13.3218
284.995
14.2859
12.9626
12.9685
13.9804
13.9876
13.0325
14.1992
13.9667
12.9678
13.0074
13.9868
13.955
13.0871
13.9654
13.8915
13.0101
13.0822
13.9583
13.8877
14.1097
15.1322
15.2137
14.179
14.1028
15.1369
15.2229
14.26
15.2131
15.263
14.1033
14.0602
15.2284
15.3045
15.267
15.7649
14.0635
14.058
15.3117
15.3083
14.3442
15.7653
15.2671
14.0579
14.0614
15.3084
15.309
14.1109
15.2631
15.2131
14.0596
14.1029
15.3035
15.2307
14.182
15.2137
15.1321
14.1027
14.1792
15.2295
15.1373
15.3863
16.6193
16.7176
15.4833
15.3974
16.6301
16.7493
15.3452
16.7169
16.712
15.4057
15.3941
16.7526
16.7753
15.599
16.7112
16.7078
15.4005
15.3945
16.7966
16.7999
15.3478
16.7078
16.7112
15.3946
15.3978
16.7999
16.7962
15.3856
16.712
16.7169
15.3932
15.404
16.773
16.7524
15.478
16.7176
16.6191
15.4028
15.4835
16.7492
16.6303
16.9271
18.4326
18.556
17.0506
16.9637
18.4373
18.6074
16.9221
18.5555
18.5538
16.9686
16.9871
18.6083
18.6162
16.9184
18.5535
18.5526
17.0089
17.0118
18.5758
18.556
16.9213
18.5526
18.5535
17.0119
17.0091
18.556
18.583
16.9264
18.5538
18.5555
16.9843
16.9685
18.6173
18.6082
17.038
18.556
18.4324
16.9626
17.0512
18.6073
18.4379
18.9496
20.6903
20.6891
18.9748
19.0022
20.7253
20.7058
18.9479
20.6889
20.6884
19.0044
18.9716
20.6961
20.6889
18.9468
20.6882
20.6879
18.9487
18.9483
20.6887
20.6886
18.9475
20.6879
20.6882
18.9483
18.9556
20.6886
20.6887
18.9491
20.6884
20.6889
18.9725
19.0038
20.6889
20.6957
18.9492
20.6891
20.6899
19.0019
18.9686
20.7053
20.7314
21.3427
23.5786
23.5776
21.3621
21.3442
23.581
23.6002
21.3421
23.5775
23.5773
21.3433
21.3425
23.5872
23.5775
21.3418
23.5773
23.5772
21.3424
21.3423
23.5774
23.5774
21.342
23.5772
23.5773
21.3423
21.3424
23.5774
23.5774
21.3425
23.5773
23.5775
21.3425
21.3432
23.5775
23.587
21.3434
23.5776
23.5782
21.3439
21.3647
23.6108
23.5786
24.4327
26.9149
26.9148
24.4433
24.4343
26.9181
26.9148
24.4325
26.9148
26.9147
24.4329
24.4326
26.9148
26.9148
24.4324
26.9147
26.9147
24.4326
24.4325
26.9147
26.9147
24.4325
26.9147
26.9147
24.4325
24.4326
26.9147
26.9147
24.4326
26.9147
26.9148
24.4326
24.4328
26.9148
26.9148
24.4332
26.9148
26.9149
24.4429
24.441
26.9149
26.9223
7.70843
7.97911
7.98815
7.67724
7.7005
7.955
7.97348
7.70046
7.98385
7.97785
7.7007
7.70149
7.97376
7.97497
7.68305
7.97551
7.94644
7.70152
7.70142
7.97513
7.97513
7.7023
7.94898
7.9769
7.70139
7.70169
7.9751
7.97519
7.70048
7.97539
7.97681
7.70171
7.70062
7.97504
7.97357
7.70798
7.98052
7.98415
7.70005
7.682
7.97296
7.95833
8.0838
8.37634
8.38498
8.0494
8.06881
8.35087
8.36887
8.07622
8.3853
8.38135
8.06907
8.07039
8.3691
8.37058
8.03873
8.38359
8.35282
8.07059
8.07066
8.37089
8.3711
8.07364
8.35093
8.37892
8.07064
8.07068
8.3711
8.37105
8.07452
8.37472
8.37687
8.07048
8.0689
8.37075
8.36893
8.07973
8.38057
8.38078
8.06827
8.05298
8.36822
8.35286
8.49037
8.8145
8.81731
8.45523
8.47386
8.78906
8.80501
8.48556
8.81774
8.81519
8.47408
8.47561
8.80526
8.80692
8.50757
8.82178
9.20577
8.47594
8.47617
8.8073
8.80756
8.48618
9.19678
8.82164
8.47618
8.47612
8.80757
8.80751
8.48387
8.81537
8.81337
8.47581
8.47392
8.80717
8.80509
8.48614
8.81728
8.81844
8.47316
8.45744
8.80423
8.79068
8.93561
9.29793
9.29822
8.90465
8.92106
9.27474
9.28822
8.93191
9.30305
9.29964
8.9214
8.92313
9.28857
9.29071
9.51955
9.30896
9.90316
8.92351
8.92376
9.29111
9.29123
8.93848
9.89355
9.30914
8.92377
8.92374
9.29124
9.29134
8.93154
9.29951
9.30458
8.9234
8.92124
9.291
9.28859
8.9338
9.30204
9.30137
8.92032
8.90637
9.28769
9.2834
9.43173
9.83404
9.8494
9.40885
9.41737
9.82006
9.82704
9.43246
9.84513
9.83966
9.41766
9.41993
9.82716
9.82975
9.86897
9.842
9.79816
9.42035
9.42043
9.83025
9.8303
9.43971
9.79696
9.84181
9.42044
9.42059
9.83032
9.83053
9.438
9.83919
9.84505
9.42024
9.4178
9.83013
9.8278
9.43024
9.84824
9.8383
9.41697
9.41081
9.82671
9.82317
9.95688
10.442
10.4898
9.96712
9.9716
10.4323
10.4317
9.95041
10.4896
10.4854
9.97148
9.97416
10.4317
10.4342
9.84303
10.488
10.4923
9.9747
9.97478
10.4347
10.4348
9.95224
10.4922
10.4875
9.9748
9.97499
10.4349
10.4351
9.95208
10.4855
10.4867
9.97464
9.97248
10.4349
10.4329
9.98348
10.4823
10.4474
9.97142
9.96737
10.4326
10.4329
10.5717
11.1326
11.1815
10.5917
10.5967
11.1181
11.1243
10.5671
11.1814
11.174
10.5948
10.5971
11.1198
11.1177
10.5746
11.1764
11.1836
10.5975
10.5975
11.1178
11.1175
10.5692
11.1838
11.1827
10.5975
10.5979
11.1175
11.1178
10.5653
11.1868
11.1827
10.5976
10.5961
11.1177
11.1201
10.6118
11.1828
11.1391
10.5963
10.6014
11.1216
11.1327
11.2743
11.9255
11.974
11.3052
11.3095
11.9094
11.9096
11.2664
11.9727
11.9798
11.3081
11.3032
11.909
11.9029
11.2752
11.9816
11.9844
11.3035
11.3028
11.9015
11.8995
11.275
11.9845
11.9814
11.3028
11.3031
11.8994
11.8998
11.2759
11.9803
11.9744
11.3029
11.3068
11.9009
11.9084
11.3265
11.9753
11.9293
11.3083
11.3193
11.9103
11.9229
12.0816
12.8315
12.8864
12.1251
12.1228
12.8264
12.8209
12.0332
12.8852
12.9038
12.1226
12.1171
12.8206
12.8145
12.0383
12.9052
12.8956
12.1146
12.1128
12.8114
12.8037
12.0346
12.8955
12.9026
12.1128
12.1124
12.8037
12.812
12.0814
12.9023
12.8855
12.1148
12.1233
12.8153
12.8206
12.1433
12.8859
12.8326
12.1258
12.1354
12.8205
12.8262
13.0101
13.8864
13.9568
13.0757
13.0725
13.8825
13.8779
12.9656
13.9545
13.9869
13.0719
13.0668
13.8776
13.8763
12.9584
13.9895
13.9754