/*--------------------------------*- C++ -*----------------------------------*\
| =========                 |                                                 |
| \\      /  F ield         | OpenFOAM: The Open Source CFD Toolbox           |
|  \\    /   O peration     | Version:  2206                                  |
|   \\  /    A nd           | Website:  www.openfoam.com                      |
|    \\/     M anipulation  |                                                 |
\*---------------------------------------------------------------------------*/
FoamFile
{
    version     2.0;
    format      ascii;
    arch        "LSB;label=32;scalar=64";
    class       volScalarField;
    location    "800";
    object      p;
}
// * * * * * * * * * * * * * * * * * * * * * * * * * * * * * * * * * * * * * //

dimensions      [0 2 -2 0 0 0 0];

internalField   nonuniform List<scalar> 
187974
(
-0.0196189
-0.00567516
-0.0228636
-0.0545193
-0.0531104
-0.018637
-0.0031971
-0.0199749
-0.000811923
-0.0174587
-0.0473805
-0.0607087
-0.0640157
-0.049378
-0.0172724
-0.00533262
0.032918
0.0679421
0.0744747
0.0923866
0.0907628
0.0740511
0.0676484
0.031502
0.051342
0.123839
0.166643
0.246372
0.246352
0.167248
0.124444
0.0511176
0.0406153
0.154549
0.219002
0.356786
0.358703
0.221692
0.156291
0.0412852
-0.0164821
0.113469
0.143625
0.260814
0.262219
0.145639
0.1142
-0.0168313
-0.102669
0.0225609
-0.0152029
0.0418291
0.0420705
-0.0148496
0.0218981
-0.10315
-0.184927
-0.0666163
-0.159737
-0.146579
-0.147738
-0.161856
-0.0685643
-0.184783
-0.247263
-0.117094
-0.213454
-0.18667
-0.187986
-0.215924
-0.118688
-0.247115
-0.31588
-0.175938
-0.253056
-0.198261
-0.198561
-0.25371
-0.177496
-0.316494
-0.400341
-0.321727
-0.420871
-0.41197
-0.411844
-0.42203
-0.322053
-0.40211
-0.435387
-0.505876
-0.661947
-0.746066
-0.745667
-0.661913
-0.506134
-0.437766
-0.313597
-0.530596
-0.690328
-0.840385
-0.840106
-0.688422
-0.530074
-0.318068
-0.0399406
-0.27922
-0.300384
-0.390654
-0.391531
-0.298859
-0.277486
-0.0396889
0.24018
0.0633272
0.187758
0.170233
0.170097
0.186592
0.0602807
0.245035
0.413775
0.294884
0.486736
0.503891
0.503131
0.48644
0.292846
0.415889
0.463453
0.390482
0.586259
0.612495
0.612411
0.585941
0.389702
0.466589
0.438501
0.403233
0.571231
0.601697
0.601689
0.571828
0.403851
0.440292
0.362874
0.372916
0.502251
0.537631
0.537647
0.502382
0.372971
0.363794
0.247569
0.321126
0.414665
0.45259
0.452621
0.414831
0.321302
0.247958
-0.0614518
-0.0170039
-0.220378
-0.104476
-0.1187
-0.224994
-0.0247853
-0.0625906
-0.0115572
0.129138
0.218826
0.473835
0.456994
0.216974
0.120263
-0.0117189
-0.0349263
-0.0188585
0.0143984
0.089744
0.227442
0.0827285
0.031408
-0.000244492
-0.0107658
0.0233315
0.0746635
0.137294
0.177329
0.111853
0.0669488
0.0365709
0.012221
0.0592274
0.110876
0.15355
0.171252
0.140493
0.106532
0.0658606
0.0102757
0.0770585
0.143075
0.194895
0.211572
0.185496
0.144443
0.0914792
-0.0314829
0.0505942
0.127406
0.189378
0.21109
0.181273
0.139303
0.0905369
-0.106096
-0.018302
0.0556063
0.112272
0.135834
0.110401
0.0868143
0.0645713
-0.202358
-0.107673
-0.0394817
0.00507424
0.0237316
0.0103011
0.0101361
0.0236545
-0.330597
-0.213146
-0.137255
-0.085054
-0.0679968
-0.0882406
-0.0849414
-0.0384836
-0.474078
-0.373727
-0.337777
-0.311369
-0.30364
-0.316251
-0.276291
-0.156629
-0.600328
-0.611006
-0.723176
-0.814468
-0.839131
-0.786214
-0.630024
-0.361747
-0.573219
-0.780308
-1.12344
-1.41324
-1.49378
-1.31711
-0.97742
-0.552704
-0.278365
-0.601526
-0.981315
-1.30565
-1.39768
-1.20133
-0.870224
-0.501936
0.152411
-0.0498848
-0.175444
-0.210037
-0.214573
-0.234883
-0.231863
-0.185797
0.457808
0.398701
0.467468
0.574769
0.599726
0.489867
0.309391
0.124713
0.558668
0.570201
0.68703
0.804084
0.830469
0.72936
0.529531
0.275723
0.528109
0.55653
0.669523
0.762754
0.783818
0.709755
0.548363
0.310236
0.455666
0.464647
0.577375
0.655942
0.674611
0.620574
0.499245
0.299641
0.32493
0.458005
0.588601
0.651322
0.651316
0.588685
0.458024
0.324985
-0.0152479
0.283456
0.550787
-0.0341708
0.0324905
0.641703
0.306289
-0.00119355
-0.124201
-0.0447275
-0.173689
-0.335109
-0.1691
-0.202613
-0.0798748
-0.129566
-0.0638547
-0.10286
-0.10752
-0.746797
0.166683
-0.127289
0.0311812
0.06424
-0.0528206
-0.0386203
0.0571525
0.215098
0.549499
0.230007
0.111522
0.035356
-0.0120713
0.0589279
0.172307
0.351777
0.567975
0.336277
0.19301
0.0991514
0.00368055
0.136509
0.264265
0.463015
0.625452
0.437955
0.265106
0.167326
-0.0442533
0.116047
0.240435
0.394955
0.484391
0.376917
0.240084
0.155779
-0.144237
0.020129
0.108496
0.189703
0.254441
0.174107
0.11938
0.112145
-0.25955
-0.0749763
-0.0245032
-0.0392239
-0.0174873
-0.0456583
-0.0138031
0.0364832
-0.432154
-0.151249
-0.00772613
0.15902
0.265966
0.104953
-0.0288086
-0.0114417
-0.696004
-0.336475
-0.17352
0.107882
0.294585
0.0176811
-0.219145
-0.167418
-1.05638
-0.811943
-0.95227
-0.992284
-0.991555
-1.00968
-0.94352
-0.627763
-1.19355
-1.4265
-2.24087
-2.96853
-3.20766
-2.83769
-2.0691
-1.1817
-0.683449
-1.37047
-2.50664
-3.83467
-4.42256
-3.53309
-2.23302
-1.11998
0.239366
-0.279124
-0.514394
-0.402222
-0.230509
-0.409759
-0.510942
-0.305797
0.833543
0.678259
1.05783
1.66858
1.95005
1.52293
0.89568
0.368639
0.980915
0.953604
1.34174
1.78367
1.93664
1.67302
1.19329
0.598718
0.830452
0.852669
1.12917
1.39506
1.47944
1.33759
1.03618
0.557177
0.699709
0.6788
0.892866
1.06507
1.11728
1.03448
0.83471
0.476419
0.453212
0.606075
0.77426
0.888893
0.913713
0.843914
0.699441
0.452986
-0.401042
-0.0577144
-1.87799
1.46727
1.36458
-1.97586
-0.111041
-0.420238
-0.413863
-0.0691924
0.0519772
2.52099
-7.19325
-0.0154107
-0.175388
-0.410881
-0.242605
-0.451173
-0.6915
-0.205015
3.2118
-0.516308
-0.469129
-0.100707
-0.144383
-0.0850562
-0.00517062
-0.32301
-2.34272
0.0459246
0.0964644
0.00404607
-0.0886661
-0.0205941
-0.0862943
-0.962514
-2.61253
-0.376542
0.0771469
0.0590112
-0.0490395
0.0770229
0.141964
0.382446
0.462137
0.422556
0.23178
0.155917
-0.0516803
0.113806
0.311398
0.842809
1.50308
0.780938
0.316635
0.193481
-0.102573
0.0704761
0.284824
0.602876
1.10442
0.705576
0.281699
0.195303
-0.203793
-0.00449615
0.139993
0.212048
6.49882
0.109481
0.0806654
0.14212
-0.411219
-0.0589526
0.158831
-0.256356
-0.945427
-0.127566
0.130771
0.0966201
-0.804116
-0.237576
0.282165
1.61477
6.30041
1.34123
0.199325
-0.0704583
-1.46807
-1.05654
-0.65943
-0.147741
-1.5075
-0.206724
-0.781747
-0.805294
-1.99618
-2.65661
-4.16685
-4.18961
-0.85244
-4.33937
-3.99513
-2.09093
-1.29266
-3.02912
-7.15898
-16.702
-27.6758
-15.8537
-6.45268
-2.17263
0.360385
-0.431438
-0.720627
1.90031
7.78907
1.60001
-0.832123
-0.382773
1.29306
1.39937
2.89352
6.31254
8.7042
5.86145
2.51014
0.752439
1.37199
1.59405
2.63255
3.97275
4.57042
3.59193
2.25101
0.955213
1.10545
1.25888
1.7705
2.29583
2.47564
2.18138
1.58992
0.793375
0.863666
0.918351
1.2208
1.47472
1.55486
1.42456
1.13561
0.625411
0.530488
0.737142
0.943577
1.0888
1.12029
1.03044
0.84664
0.53049
-0.322739
0.32035
-1.61622
1.11923
1.36399
-1.52975
0.34012
-0.308669
-0.186765
-0.171263
0.353621
7.06572
0.92058
0.974401
-0.126577
-0.171625
-0.218051
-0.445113
-0.925183
-2.18782
-0.143347
-1.33457
-0.500181
-0.0424075
-0.139414
-0.105705
-0.0433415
0.498257
0.622378
0.393978
0.0853288
0.0345862
-0.111779
-0.0839473
-0.105055
-0.0431648
0.979137
0.203129
0.0603944
0.0301756
-0.0799899
-0.0548143
-0.104537
-0.145617
1.39147
0.265121
0.092207
0.0495535
-0.0422825
0.00761409
0.00275665
-0.035008
1.84823
0.440084
0.173745
0.0937311
-0.0131838
0.10903
0.2547
-0.12757
1.1775
0.501782
0.31994
0.196015
-0.0577811
0.209817
0.604189
0.986081
-3.69764
1.15256
0.562041
0.286546
-0.27844
0.136412
0.622729
1.6284
8.80004
1.35381
0.551529
0.206827
-0.708315
-0.0624056
0.883544
2.43445
10.0978
2.22657
0.712935
0.0117362
-1.44568
-0.945579
0.363135
6.32553
30.0476
5.54773
0.0469115
-0.7626
-2.11192
-3.12684
-5.11939
0.57058
61.1751
-0.868125
-4.87726
-2.30134
-1.41058
-3.90959
-12.2285
-65.4977
-58.5891
-10.3938
-2.43021
0.404169
-0.400766
-0.085721
19.6592
171.275
16.0191
-0.483284
-0.350867
1.40297
1.82253
4.50387
12.5828
19.4869
11.2593
3.87971
0.915899
1.4452
1.86569
3.24162
5.09996
5.89083
4.64802
2.75787
1.05396
1.15798
1.39473
2.01723
2.64234
2.86383
2.50301
1.80401
0.847938
0.893921
0.992426
1.32729
1.61379
1.70477
1.55695
1.23225
0.65845
0.526601
0.765044
0.979174
1.13086
1.16371
1.06901
0.873932
0.526562
0.102841
0.219482
0.18965
-0.262157
-0.167018
0.191793
0.254374
0.100381
0.0984378
-0.186438
-0.219606
-0.240755
-2.89924
-0.437523
-0.0463293
0.114871
-0.0220582
-0.250978
-0.979483
-4.15251
-2.95794
-1.41034
-0.258509
0.053042
-0.0676903
-0.0498251
-0.193461
-0.70969
-1.44393
-0.538388
-0.0925661
0.0422437
-0.0874015
-0.124692
-0.274295
-0.552147
-0.650597
-0.345353
-0.127723
-0.0210859
-0.0676634
-0.13511
-0.265722
-0.518491
-0.0429362
-0.265727
-0.107203
-0.0323275
-0.0124482
-0.0640172
-0.148103
-0.454972
0.458626
-0.172295
0.00247984
0.0284214
0.0514741
0.148594
0.31817
0.345181
0.900979
0.484805
0.34235
0.183002
0.0168323
0.299148
0.84476
1.61315
0.938705
1.38191
0.712521
0.274771
-0.18327
0.174767
0.575913
0.881394
0.838645
0.842375
0.527221
0.181063
-0.543624
-0.0954811
0.499056
1.37075
1.95718
1.26413
0.405451
-0.0464252
-1.01035
-0.758581
-0.231744
1.73654
4.02925
1.48154
-0.328385
-0.58241
-1.31704
-1.93309
-3.04145
-3.35799
-2.27425
-3.42252
-2.90166
-1.3895
-0.776531
-2.08972
-4.70869
-10.4932
-15.2468
-10.0185
-4.36073
-1.37034
0.355624
-0.251283
-0.535874
0.908098
3.46918
0.699062
-0.605981
-0.296344
1.04979
1.19016
2.30257
4.62001
6.09773
4.30595
2.04101
0.566352
1.12941
1.38067
2.14908
3.06205
3.48568
2.81086
1.85877
0.732692
0.958935
1.12821
1.56985
1.99561
2.14228
1.89945
1.40466
0.666642
0.766676
0.849479
1.1204
1.34722
1.41757
1.30256
1.03793
0.555116
0.445043
0.666091
0.848235
0.973961
0.999962
0.919661
0.752274
0.445024
-0.0558078
-0.000727595
-0.106819
0.22554
0.19944
-0.104506
-0.00117818
-0.050041
-0.070364
-0.180756
-0.263052
-0.222832
-0.220179
-0.250618
-0.160453
-0.0669943
-0.0302325
-0.123307
-0.262964
-0.397134
-0.287351
-0.287111
-0.166237
-0.0576693
-0.0368328
-0.0874483
-0.17647
-0.278663
-0.276759
-0.221621
-0.129501
-0.0521078
-0.0473666
-0.109079
-0.220088
-0.351479
-0.392084
-0.283253
-0.15638
-0.0626838
-0.0387949
-0.0996972
-0.211282
-0.352501
-0.39637
-0.272209
-0.139011
-0.0523551
0.00493031
-0.0226672
-0.0685182
-0.136808
-0.152949
-0.0859168
-0.0250976
-0.00304122
0.0425206
0.0928742
0.193927
0.31991
0.37239
0.277603
0.16873
0.0853331
-0.0026651
0.121689
0.328702
0.586579
0.683393
0.475052
0.264907
0.127884
-0.147703
-0.00375452
0.157329
0.28311
0.312461
0.245883
0.145348
0.070657
-0.35958
-0.220529
-0.0857995
0.042992
0.0803629
-0.000236724
-0.0827305
-0.0669004
-0.567628
-0.537195
-0.562481
-0.520781
-0.502056
-0.550856
-0.520742
-0.312474
-0.60337
-0.829964
-1.22589
-1.56903
-1.65739
-1.44356
-1.0449
-0.576853
-0.263045
-0.617816
-1.08587
-1.49235
-1.60981
-1.34784
-0.94469
-0.53224
0.284275
0.0862826
0.0345293
0.0965507
0.119892
0.0164811
-0.0876048
-0.10916
0.640601
0.633012
0.829304
1.06899
1.12781
0.91836
0.589311
0.269058
0.732914
0.805614
1.02985
1.2269
1.26874
1.10703
0.794095
0.425123
0.672229
0.733691
0.91043
1.05279
1.08189
0.97426
0.7406
0.422796
0.560918
0.59753
0.751369
0.862302
0.887765
0.813698
0.649589
0.393577
0.316677
0.445719
0.571968
0.632421
0.632477
0.572154
0.446075
0.316931
0.0546754
0.0462732
0.0809391
0.0639428
0.0683941
0.0767332
0.047721
0.0552065
0.0412521
-0.00717851
0.0200012
0.0452317
0.0444099
0.0169083
-0.00850699
0.0406181
0.0100373
-0.0151417
-0.00793557
-0.00995865
-0.0108951
-0.0118766
-0.0154768
0.0102393
-0.0304301
-0.0586364
-0.0792281
-0.104541
-0.106384
-0.0831826
-0.0577234
-0.0272714
-0.0389343
-0.0761772
-0.125591
-0.16853
-0.169237
-0.125925
-0.0791603
-0.0414289
-0.0325222
-0.0606137
-0.108176
-0.143786
-0.143363
-0.106335
-0.061537
-0.0321286
-0.00572938
0.00286314
-0.011399
-0.00458615
-0.00367826
-0.00936988
0.00235525
-0.00537867
-0.00171657
0.0539072
0.0726096
0.126336
0.126171
0.0735497
0.0537238
-0.000793504
-0.0462455
0.0345696
0.0425088
0.0927589
0.0914863
0.0413361
0.0326461
-0.0482162
-0.124276
-0.0415038
-0.0547683
-0.0206683
-0.0224085
-0.0570104
-0.0445154
-0.127257
-0.211938
-0.172896
-0.208461
-0.200133
-0.201544
-0.209473
-0.175707
-0.213399
-0.254802
-0.325233
-0.406263
-0.46849
-0.469868
-0.407776
-0.327488
-0.255424
-0.16479
-0.349464
-0.429777
-0.543744
-0.544916
-0.431285
-0.35218
-0.165338
0.0576074
-0.149825
-0.128427
-0.202699
-0.203432
-0.129346
-0.151704
0.0568787
0.286865
0.119776
0.257805
0.244582
0.244213
0.258121
0.119372
0.287401
0.423554
0.310703
0.500366
0.516131
0.515973
0.50136
0.311307
0.427073
0.457453
0.388091
0.577132
0.601502
0.601464
0.578035
0.388749
0.459357
0.427997
0.395741
0.558425
0.587992
0.588103
0.55987
0.397552
0.431128
0.353034
0.363679
0.488349
0.522558
0.522506
0.488691
0.364334
0.353963
0.240708
0.312317
0.402543
0.439277
0.439316
0.402756
0.312515
0.241126
0.12702
0.0338524
0.181292
-0.0736953
0.151154
-0.0419924
0.132433
0.245117
0.139466
0.30366
0.0580264
0.280969
0.048797
0.369459
0.548984
0.297663
0.487685
0.065023
-0.834046
0.211041
0.235304
0.193808
0.494433
0.286444
-0.820204
0.0903744
0.547434
0.113155
0.0389414
0.293658
0.129143
0.27224
0.0593287
0.230943
0.0474439
-0.0466408
0.170285
0.0312115
0.143984
-0.0733607
0.133569
-0.0412217
0.200663
0.110615
0.24427
-0.0261153
0.143859
-0.00902725
0.195663
0.341579
0.237167
0.402319
0.0609308
0.23297
0.146294
0.56438
0.565693
0.428873
0.607692
0.358271
1.08875
0.739595
2.36388
0.347222
0.611246
0.432392
1.10151
0.271549
2.40798
0.758036
0.16539
0.404566
0.2379
0.316007
0.0700497
0.565026
0.165077
0.0576853
0.243774
0.112422
0.146095
-0.0255414
0.204085
0.0164043
0.263447
0.114815
0.250104
0.0476472
0.218014
0.0516623
0.256903
0.433243
0.250774
0.399729
0.173976
0.567141
0.222747
0.540097
0.621796
0.421538
0.5258
0.764364
2.15548
0.536559
1.13408
0.469936
0.527402
0.424664
2.20407
0.779284
1.14819
0.615485
0.266568
0.402557
0.251051
0.596445
0.197758
0.53674
0.213939
0.139831
0.25056
0.114479
0.229758
0.0505006
0.242819
0.0437465
0.241075
0.0374227
0.158107
0.0588104
0.24087
0.0183573
0.196733
0.377893
0.142086
0.238446
0.21043
0.482659
0.152493
0.280339
0.483507
0.243441
0.3147
0.528381
0.86726
0.266372
0.303953
0.394034
0.310066
0.23747
0.855578
0.508595
0.284024
0.279949
0.239108
0.22919
0.134878
0.461151
0.203029
0.26777
0.141755
0.115044
0.150978
0.0294582
0.235406
0.0490502
0.185214
-0.014395
0.127889
-0.064833
0.0212799
0.00845069
0.177999
-0.0544886
0.039659
0.186929
-0.00701507
-0.0110442
0.125284
0.211254
-0.0376237
-0.239846
0.260198
-0.0201843
0.0360818
0.164718
0.198665
-0.494093
0.00739847
0.181206
0.0296598
-0.0336461
0.170615
0.177528
-0.174962
-0.53136
0.0994783
-0.0271486
-0.0208234
0.196895
0.112277
-0.295351
-0.0830867
0.0175241
0.00883559
-0.0710195
0.163772
-0.000452186
-0.00342307
-0.076639
-0.00136956
-0.151235
-0.0206706
-0.062227
0.0321275
-0.113241
0.112101
-0.0309227
-0.0245651
0.0470166
0.0191249
-0.193212
0.113542
0.0129419
-0.0130719
0.0687756
0.126235
-0.221468
1.00826
-0.0640073
-0.109871
-0.0522593
0.126321
0.0611148
0.978707
-0.300604
-0.134467
-0.122024
-0.0377916
0.0384701
-0.0336243
-0.269391
-0.0321192
-0.0398788
0.080222
-0.0831284
-0.029505
-0.159261
-0.0115703
-0.0798698
0.0856799
-0.129299
-0.0204194
-0.284192
-0.126861
-0.110679
0.124639
-0.248538
0.184609
0.111285
-0.0907469
0.109971
0.132287
0.0997574
0.248244
1.20468
0.267517
0.199802
0.403475
0.038706
0.430646
1.4512
5.22833
0.15431
0.405366
0.199194
0.414166
-0.0101248
5.26157
1.44655
-0.0149935
0.108843
-0.0958488
0.051845
0.101012
1.19409
0.234254
-0.156669
-0.13233
-0.294503
0.0945018
-0.123664
0.167958
-0.257496
-0.21636
-0.662837
-0.69225
-0.300194
0.158301
-0.801876
-0.587679
0.0190396
-0.689616
-0.683268
0.224513
1.14983
-0.540388
-0.272054
0.293519
-0.65707
-0.647554
1.36973
4.31879
-0.287747
-2.03284
0.108494
-0.647984
-0.657861
4.31153
1.35868
-1.94963
-0.349495
-0.176742
-0.684143
-0.691247
1.13978
0.210587
-0.327683
-0.563995
-0.342011
-0.695103
-0.66835
0.139478
-0.305289
-0.606714
-0.806952
-0.941083
-1.22229
-1.73175
-1.0435
-0.79448
-1.98796
-3.17073
-1.00823
-1.84634
-2.22808
-0.746175
-0.321155
-3.33224
-3.6917
-0.991319
-2.28999
-2.38919
-0.334685
-1.44252
-3.59929
-0.513047
-0.99356
-2.39023
-2.29173
-1.50215
-0.403422
-0.513525
-3.61701
-0.953014
-2.2311
-1.85011
-0.385698
-0.776285
-3.70937
-3.35085
-0.814741
-1.73833
-1.22513
-0.811699
-1.04744
-3.18483
-1.99238
-2.06397
-1.37754
-2.30909
-2.3785
-3.643
-2.64726
-5.71533
-2.83357
-2.57617
-3.61005
-3.85109
-4.34326
-6.33961
-14.0152
-3.20509
-3.91408
-4.49413
-4.29304
-1.76826
-14.8789
-23.1115
-2.97143
-4.49668
-3.92268
-1.76841
-4.31355
-23.1233
-14.9532
-2.24579
-3.61883
-2.57922
-4.36027
-3.8768
-14.0857
-6.36354
-1.42905
-2.31306
-1.38085
-3.6632
-2.38227
-5.7374
-2.64967
-2.23258
-0.541263
-0.976692
-2.558
-5.54226
-0.918886
-1.50976
-3.52175
-1.05081
-1.26042
-6.07854
-14.0316
-1.56649
0.0494062
-4.41551
-1.30716
-1.29983
-14.902
-23.5043
0.292408
4.50608
-3.84736
-1.30699
-1.2751
-23.5185
-14.9832
4.5075
0.254141
-2.50766
-1.2267
-1.04424
-14.1081
-6.10492
0.0908289
-1.52434
-1.36752
-0.973325
-0.527325
-5.55543
-2.56219
-1.53498
-0.916043
-0.515223
0.489882
0.649862
-0.366239
-0.818268
0.989516
2.07362
-0.448819
0.773157
1.20304
-0.757723
0.971656
2.38481
5.08244
-0.223224
1.33889
1.62704
1.33762
5.81621
5.54977
7.76549
-0.368203
1.63196
1.33756
5.81357
1.29886
7.7715
5.54675
-0.502761
1.20678
0.775139
1.01566
-0.72869
5.07416
2.37554
-0.277517
0.64196
0.486246
-0.827466
-0.370051
2.07047
0.976307
0.899242
0.873827
1.13889
1.24447
2.22919
1.45146
2.28633
1.51809
1.29006
1.66887
2.55764
4.97269
2.44299
3.59045
1.94717
1.78061
1.9616
5.38254
7.27661
3.74161
4.62029
1.66161
1.95473
1.75881
7.28175
5.3821
4.61967
3.75469
1.05843
1.65803
1.28844
4.9654
2.52383
3.60529
2.44697
0.677666
1.13498
0.882715
2.21616
1.24576
2.30056
1.44364
1.19328
0.860451
1.05485
1.44883
1.96252
1.22533
1.55727
1.6834
1.16323
1.38422
2.26932
3.03612
1.75307
2.21376
1.93869
1.45455
1.56253
3.32197
3.82294
2.34945
2.54066
1.77342
1.56072
1.45189
3.81765
3.32416
2.5403
2.34642
1.3422
1.38969
1.16836
3.06539
2.28944
2.21398
1.76424
0.949319
1.05772
0.860821
1.97262
1.44167
1.5699
1.22061
1.03276
0.700369
0.856553
1.16433
1.4392
0.918604
1.14378
1.33575
0.926243
1.07869
1.60959
1.98329
1.24715
1.45807
1.47999
1.11342
1.16939
2.08716
2.24011
1.51489
1.59959
1.39224
1.16937
1.11304
2.24001
2.08595
1.59959
1.51491
1.13649
1.07865
0.926945
1.984
1.61586
1.45815
1.24759
0.853962
0.856452
0.701439
1.44481
1.16572
1.14307
0.917051
0.834595
0.594554
0.721895
0.872832
1.06913
0.68952
0.822571
1.03425
0.814251
0.894741
1.15088
1.33826
0.94365
1.03126
1.11728
0.944651
0.973456
1.38526
1.45838
1.09704
1.1292
1.06501
0.973477
0.944786
1.45839
1.38534
1.12922
1.09713
0.893825
0.894871
0.815007
1.33839
1.15125
1.03137
0.943884
0.682135
0.721335
0.594432
1.06903
0.87443
0.822652
0.690418
0.188392
-0.0372384
0.101692
-0.150177
0.0911489
-0.132753
0.0555688
0.0850066
-0.0778357
-0.334584
-0.0935223
0.458632
-0.127746
0.187781
-2.37035
-1.00323
-3.48611
0.509629
1.04537
-0.13681
0.974647
-0.387916
-2.69119
-1.17941
1.02997
0.433848
1.07296
-0.0302776
-0.0695507
-0.417444
-0.119575
0.457094
-0.0377044
0.231694
-0.114182
-0.124267
0.0664944
-0.0490318
0.107086
-0.150869
0.0717639
-0.132597
0.104178
0.0458068
0.198442
-0.131644
0.0496474
-0.0987103
0.0606156
-0.543145
0.0755511
0.220177
-0.14618
0.138628
-0.142545
0.140059
-2.37621
-0.058739
-0.20921
-0.20772
1.14029
-0.262183
0.831178
-1.14347
-0.140901
-0.0697446
1.19812
-0.105206
0.913929
-0.231545
-0.0973381
0.185844
0.0816312
0.195683
-0.129909
0.167008
-0.13219
-0.0214967
0.180142
0.0455438
0.0619286
-0.129779
0.0676702
-0.100675
0.239387
0.103821
0.319848
-0.0824769
0.071572
-0.0356451
0.121116
0.418682
0.291617
0.802834
-0.121197
0.181152
-0.0321609
0.29136
0.440157
0.775624
1.48381
-0.202106
0.74717
0.0113529
0.86366
0.265339
1.52597
0.866681
0.819383
-0.193825
0.925643
-0.0170284
0.149769
0.789943
0.275451
0.198817
-0.116088
0.294383
-0.0434429
0.0805734
0.308623
0.0882664
0.0793677
-0.0843369
0.119097
-0.0462632
0.324577
0.0753885
0.314895
-0.0166501
0.131468
0.0385593
0.195587
0.781125
0.300442
0.757957
-0.00812934
0.264929
0.0991095
0.163221
1.48006
0.673783
1.13485
0.0225752
0.807587
0.000863264
0.198856
0.806518
1.144
0.622622
0.867869
-0.017303
0.256707
-0.072225
0.289423
0.732352
0.269121
0.271183
-0.0227854
0.17794
0.0754648
0.0925956
0.291618
0.0507916
0.128244
-0.0273766
0.183242
0.0225897
0.30444
0.00113834
0.208618
0.0703858
0.251953
0.139568
0.464393
0.75003
0.219994
0.746794
0.182061
0.20444
0.510071
1.31737
1.1195
0.951936
7.96098
0.0994994
-0.0475845
2.03266
-4.61231
0.544509
7.19351
0.830266
-0.000441306
0.0136935
-4.39875
1.85446
0.259179
0.639933
0.165226
0.219799
0.152731
1.25537
0.44862
0.058019
0.165078
-0.021156
0.233585
0.0521947
0.414207
0.113328
0.126007
-0.0637528
0.147672
0.162584
0.619716
0.101407
0.567574
0.184095
0.141233
-0.135609
0.659242
1.56535
0.616348
1.24962
6.70723
-0.317752
-1.47319
1.84449
-9.18356
1.40455
8.44634
0.133459
-1.53671
-0.383003
-9.5988
1.77087
8.55031
1.41861
0.0867494
-0.195573
0.11008
1.49456
0.603697
1.23369
0.582992
-0.0270257
0.120957
-0.0807379
0.569515
0.136825
0.5328
0.0831258
0.157156
-0.194361
0.230509
0.101592
0.560007
-0.0512431
0.728836
-0.0769071
0.297952
1.35915
0.609475
1.13546
0.866192
2.10433
-0.922838
1.65127
7.49767
1.25016
8.93374
2.10639
5.52581
-0.310943
7.52997
1.66686
9.01379
1.27608
5.70303
2.06508
0.13093
1.36455
0.286148
1.12014
0.578511
2.00687
0.835444
-0.0737669
0.217276
-0.202624
0.527501
0.0857406
0.700291
-0.0626714
0.214335
-0.780431
-0.546196
-0.0856806
0.762284
-0.667318
0.272812
1.34094
-0.451027
-0.0960708
0.92411
2.64278
0.543317
5.65009
6.27583
-0.116027
-1.97532
2.71022
6.16618
6.30459
33.1477
1.62253
-1.95479
-0.153013
6.32276
2.64233
35.3071
6.17415
0.272745
-0.121009
-0.470676
2.53419
0.892038
5.52102
0.501866
-0.244353
-0.561856
-0.786806
0.732792
-0.0970524
0.234234
-0.681357
-0.76542
-2.1527
-3.42461
-0.976991
0.0216279
-2.47896
-4.01008
-0.14065
-3.54695
-3.60804
0.290266
5.60484
-4.15068
0.526301
-1.46486
-3.4446
0.582587
6.27084
34.6117
1.90393
59.4122
-0.22429
0.583986
-3.46992
36.3654
6.14479
60.3979
1.86142
-0.678248
-3.63302
-3.56443
5.47826
0.248223
0.470862
-4.18659
-1.06305
-3.44039
-2.1581
-0.0174605
-0.991704
-4.04553
-2.49498
-3.97835
-3.08384
-6.57656
-3.18197
-4.97439
-4.02511
-10.7651
-4.31533
-7.42379
-15.7716
-5.28447
-0.83649
-12.7037
-57.108
-0.857079
-16.6594
-27.0497
0.553662
64.0026
-63.7088
-2.60006
-4.21506
-27.06
-16.7528
64.8052
0.513085
0.0250935
-63.9869
-4.18444
-15.858
-7.45405
-0.89227
-5.32092
-57.384
-12.7474
-2.66119
-6.59927
-3.08395
-5.0097
-3.19779
-10.802
-4.03896
-6.43724
-1.08416
-1.63177
-3.98233
-10.6633
-1.31811
-1.86408
-15.7629
-1.65431
0.476202
-12.6171
-59.4185
-1.72661
13.7821
-27.6621
0.773095
6.47168
-66.815
-583.697
17.5296
199.438
-16.8022
6.46979
0.828069
-580.667
-67.1297
199.497
17.5976
-7.18003
0.592201
-1.62001
-59.7142
-12.6591
13.8374
-1.73009
-3.02933
-1.62735
-1.07661
-10.699
-3.99546
-1.87118
-1.32395
-0.816939
1.11779
2.36316
-0.423105
-0.491058
1.49769
3.83888
1.52911
2.70837
6.02594
-0.0936572
16.2443
4.52634
12.7381
7.7961
6.60774
9.55303
20.0004
168.166
14.4432
23.8656
1.93716
9.56687
6.60314
168.21
20.0669
23.8662
14.4762
-0.73483
6.08652
2.71755
16.3011
-0.0906854
12.7718
4.53678
-0.427841
2.37136
1.10576
-0.492609
-0.428652
3.84705
1.49177
2.56724
1.60789
2.42901
1.83755
3.90552
1.91172
3.22276
5.8143
2.5789
3.84238
4.53261
11.4607
3.45167
5.62021
8.68555
4.00993
4.96686
12.807
19.8607
5.87676
7.18105
6.30217
4.96703
4.02326
19.8617
12.8365
7.18134
5.8812
2.84399
3.86026
2.56446
11.491
4.54165
5.62557
3.45619
1.41753
2.41898
1.59728
3.9129
1.837
3.22712
1.91034
2.2656
1.31899
1.74591
1.8827
2.78596
1.48546
2.01715
3.60274
1.95415
2.46892
3.28234
4.70358
2.28304
2.90695
4.57031
2.61348
2.84704
5.16771
5.97042
3.0925
3.38946
3.96573
2.84721
2.61593
5.9705
5.16776
3.38946
3.09247
2.62798
2.46982
1.95459
4.70164
3.27909
2.90676
2.28267
1.59975
1.74703
1.31471
2.78289
1.8814
2.01708
1.48581
1.58577
0.975614
1.22742
1.40139
1.81406
1.06045
1.34465
2.18086
1.33241
1.56492
2.03012
2.51889
1.46475
1.73229
2.47555
1.62624
1.72039
2.6604
2.88339
1.80321
1.91253
2.29691
1.72041
1.62643
2.88339
2.66043
1.91254
1.80331
1.77224
1.56506
1.33275
2.51885
2.03004
1.73238
1.46488
1.25581
1.22641
0.977613
1.81417
1.4017
1.34474
1.06058
1.13616
0.750933
0.911431
0.995224
1.23606
0.788574
0.951918
1.42442
1.03872
1.14456
1.332
1.56251
1.08956
1.19967
1.55484
1.21561
1.25405
1.61994
1.71132
1.27643
1.31691
1.47487
1.25407
1.21569
1.71133
1.62004
1.31694
1.27651
1.22097
1.14465
1.03887
1.56261
1.33213
1.19978
1.08971
0.92004
0.911463
0.751
1.23616
0.995241
0.952047
0.788714
0.107842
-0.0821302
0.0834054
-0.0340273
0.0694959
-0.105826
-0.0123824
0.423
-0.088048
0.254525
-0.0349135
-0.0866198
-0.153436
-0.0825787
0.638517
0.0140024
0.781548
-0.0592356
-0.756068
-0.245934
0.135953
0.453893
0.821391
0.0381151
-0.703394
-0.125863
-0.473839
-0.27925
-0.0562809
0.231512
-0.0982381
-0.147297
-0.0431328
-0.0785625
-0.162625
-0.114093
0.0673059
-0.0865612
0.0626059
-0.0485402
-0.0133368
-0.113522
0.0732203
-0.0623557
0.0811655
-0.122807
-0.0212359
-0.122602
-0.0210094
0.217773
-0.114914
0.232939
-0.168
-0.0965204
-0.167011
-0.0917216
0.931677
-0.153909
1.13872
-0.255381
-0.516144
-0.314949
-1.46769
-0.0250325
1.19777
-0.163508
0.116094
-0.212679
-1.458
-0.284289
-0.113984
0.226325
-0.11904
-0.130032
-0.181683
-0.0659996
-0.160894
-0.0859903
0.0778574
-0.0619321
-0.0247479
-0.128468
-0.0191757
-0.125703
0.0932226
-0.00855365
0.15631
-0.126127
-0.0149229
-0.078472
0.0206749
0.266001
-0.0308357
0.423166
-0.152933
-0.0820615
-0.149297
0.0238011
1.31854
-0.0388789
1.70623
-0.203909
-0.126755
-0.221718
-0.540965
-0.15701
1.785
-0.0839394
-0.107938
-0.215859
-0.520049
-0.233797
-0.108533
0.423302
-0.0449548
-0.0325815
-0.144913
0.0261082
-0.151937
-0.0537033
0.151503
-0.0129915
-0.00503581
-0.129292
0.0164106
-0.0846197
0.180692
0.076192
0.287296
-0.0653127
0.0293155
0.044892
0.15033
0.444847
0.169596
0.489545
-0.134646
-0.117942
0.027232
0.0848971
1.77781
-0.117464
1.61249
-0.414492
-1.27353
-0.0767427
0.747636
-0.0925837
1.58817
-0.184858
-1.2594
-0.4257
0.787173
-0.0876152
-0.0146985
0.4737
0.144753
-0.110175
-0.134797
0.0963603
0.0283132
0.00166919
0.270073
0.0637174
0.0323874
-0.0711845
0.154145
0.0378063
0.341219
0.182823
0.565803
0.103503
0.251237
0.25797
0.724462
0.523386
0.598371
0.205089
0.174564
0.411669
0.846236
0.840828
1.24604
-1.21424
1.24691
0.235351
1.53012
-0.096626
-0.256637
-0.178683
1.25073
-0.80934
1.55741
0.208253
-0.227452
-0.0957114
0.22672
0.304573
0.571775
0.424469
0.164372
0.810582
0.792841
0.0943668
0.538292
0.161916
0.247181
0.0919635
0.688449
0.240219
0.600714
0.139648
0.587297
0.301461
0.804936
0.204402
0.629595
1.12065
0.627396
1.44619
0.898262
1.46766
0.668762
1.02461
-3.8226
1.68137
7.57901
1.70065
7.32007
1.00993
0.95075
1.0878
7.96581
1.65014
7.25571
1.61902
0.952444
0.957056
0.565284
1.42187
0.598565
1.37742
0.859091
1.00488
0.632384
0.187328
0.556369
0.122063
0.764523
0.28256
0.610638
0.190465
0.580178
-0.0281907
0.702434
0.185392
0.605387
-0.0102215
0.521847
1.38885
0.823879
1.87353
0.64628
0.958875
0.610254
1.29168
8.44917
2.09415
10.2982
0.935819
0.776468
1.40718
1.70775
1.59947
10.0979
2.19571
0.780863
0.886233
1.66873
1.30798
0.597079
1.90169
0.802308
0.939658
0.612201
1.30583
0.584482
0.120885
0.678974
-0.0409225
0.576156
0.173107
0.498919
-0.0234374
0.738701
-0.637932
0.334181
-0.0569296
0.514725
-0.551554
-0.0437317
2.20872
0.612206
5.70132
0.61664
1.4397
0.113863
1.97883
10.1321
6.3394
26.9267
1.63559
2.33299
2.18662
4.97391
2.5238
28.6718
6.20994
2.28407
1.59817
4.97445
2.08416
0.858382
5.57877
0.568741
1.50394
0.588574
1.88175
0.0771507
-0.0755369
0.294394
-0.652801
0.489996
-0.0697062
-0.0660986
-0.564164
0.0865164
-2.43923
-3.89403
-0.796079
-0.257153
-1.78545
-2.70954
5.67043
-4.01519
0.56335
-0.111234
1.85854
-2.78354
-2.9227
28.7449
1.84751
56.8233
2.07094
4.74215
-2.83599
-1.102
6.19681
57.8832
1.71577
4.76737
1.9594
-1.11481
-2.84132
0.319706
0.431755
-4.05928
1.76166
-0.144554
-2.99409
-2.81349
-0.959708
-3.93286
-2.45397
-0.281777
-0.811709
-2.74416
-1.80561
-4.83701
-3.9521
-10.4178
-2.23063
-3.18144
-2.60311
-5.35127
-0.736682
-12.2848
-56.0755
-3.313
-3.44478
-5.81857
-11.2269
60.8057
-62.5941
-308.98
-3.38752
-1.7368
-11.7661
-17.514
0.43876
-306.92
-62.8761
-1.75063
-3.4163
-17.5191
-11.8359
-5.16553
-56.3938
-12.3452
-3.49954
-3.34302
-11.302
-5.84939
-3.14013
-10.4685
-3.96074
-3.21792
-2.24681
-5.37135
-2.61342
-10.3467
-1.27637
-1.82773
-2.56034
-5.17038
-0.867469
-1.3179
-58.2568
-1.69034
13.5664
-5.67206
-11.2423
-1.23636
0.303363
17.2654
211.298
-11.7848
-17.7095
0.447545
3.58058
-65.803
211.364
17.3321
-17.7121
-11.8347
3.59313
0.455817
-12.2849
13.6194
-1.70097
-11.2837
-5.70059
0.308445
-1.24113
-3.91633
-1.83877
-1.28697
-5.18826
-2.56539
-1.27639
-0.875427
-0.476822
1.48844
3.81422
-0.290549
-0.648696
1.05998
2.1731
15.9632
4.49542
12.4609
-0.496161
1.10936
2.45912
5.28946
171.233
14.1193
23.3418
1.23442
4.61093
5.65354
7.85016
19.7303
23.3437
14.1244
4.62359
1.24135
7.85267
5.67084
-0.0897514
12.4632
4.4919
1.11269
-0.501035
5.3068
2.46067
-0.40384
3.81107
1.4888
-0.645371
-0.293277
2.17284
1.0621
3.88156
1.89533
3.21203
1.34112
2.30939
1.54787
2.27549
11.2574
3.43996
5.58877
2.59855
5.18436
2.40907
3.64891
19.4855
5.84356
7.13538
5.48817
7.28754
3.87529
4.53521
12.5848
7.13565
5.84793
7.29016
5.49883
4.53561
3.84902
4.50131
5.59412
3.44583
5.18647
2.5949
3.63805
2.41034
1.82422
3.21768
1.89786
2.31362
1.34047
2.27681
1.55333
2.75281
1.47739
2.00222
1.52021
2.13978
1.26591
1.69012
4.64396
2.26597
2.884
2.47666
3.41541
1.89794
2.36559
5.89037
3.06789
3.36231
3.76458
4.23582
2.50177
2.71265
5.10322
3.36247
3.06919
4.23651
3.75975
2.71252
2.50238