/*--------------------------------*- C++ -*----------------------------------*\
| =========                 |                                                 |
| \\      /  F ield         | OpenFOAM: The Open Source CFD Toolbox           |
|  \\    /   O peration     | Version:  2206                                  |
|   \\  /    A nd           | Website:  www.openfoam.com                      |
|    \\/     M anipulation  |                                                 |
\*---------------------------------------------------------------------------*/
FoamFile
{
    version     2.0;
    format      ascii;
    arch        "LSB;label=32;scalar=64";
    class       volScalarField;
    location    "800";
    object      ReThetat;
}
// * * * * * * * * * * * * * * * * * * * * * * * * * * * * * * * * * * * * * //

dimensions      [0 0 0 0 0 0 0];

internalField   nonuniform List<scalar> 
187974
(
528.164
546.647
550.618
557.246
556.996
550.436
546.902
526.736
509.729
531.439
532.868
535.819
535.897
532.758
531.972
508.107
498.787
519.618
518.905
520.942
520.924
519.042
520.394
497.017
487.076
501.889
501.082
502.605
502.591
501.269
502.719
485.077
471.881
482.299
481.034
482.754
482.73
481.224
483.2
469.658
455.091
462.249
461.072
461.559
461.523
461.091
463.125
452.729
436.965
443.142
441.897
440.383
440.341
441.721
443.949
434.746
416.977
422.61
421.254
420.339
420.295
421.101
423.564
414.46
400.639
402.549
402.124
402.201
402.18
402.054
403.269
398.532
387.133
387.842
387.562
387.414
387.414
387.474
388.616
385.055
371.528
373.053
372.447
372.269
372.27
372.414
373.401
369.976
357.055
357.862
357.379
357.181
357.187
357.394
358.531
355.198
340.915
341.9
342.035
342.089
342.09
342.025
342.521
339.142
324.869
325.858
325.833
325.803
325.796
325.792
326.41
323.227
308.621
309.529
309.467
309.45
309.44
309.439
309.914
307.403
292.159
292.936
292.887
292.879
292.877
292.877
292.856
292.213
276.044
275.975
275.955
275.961
275.961
275.956
275.955
275.763
258.481
258.577
258.554
258.55
258.55
258.554
258.576
258.513
240.628
240.698
240.688
240.687
240.687
240.688
240.699
240.621
222.274
222.314
222.312
222.31
222.31
222.312
222.315
222.273
536.352
563.573
559.724
557.874
557.942
559.851
564.164
536.708
514.749
539.96
537.001
536.019
536.015
537.104
540.387
515.722
491.033
532.771
527.834
526.26
526.251
527.729
532.21
551.68
470.954
510.562
509.94
509.941
509.928
509.948
510.667
523.035
451.15
493.905
493.745
492.976
492.989
493.828
493.501
501.15
429.01
478.052
477.725
476.574
476.752
478.553
477.205
481.046
407.918
458.131
457.461
460.798
461.265
460.021
457.371
459.711
397.837
434.579
434.732
439.146
439.504
437.437
434.039
436.222
387.856
410.121
410.853
412.844
412.809
412.982
409.988
412.246
377.201
393.931
393.465
393.534
393.575
393.593
393.619
394.904
367.023
377.357
377.515
377.52
377.519
377.527
377.54
377.756
357.505
361.695
361.848
361.884
361.881
361.883
361.734
362.138
346.12
345.919
346.052
346.14
346.161
346.118
345.971
346.367
329.867
329.98
330.051
330.062
330.067
330.038
330.023
330.485
313.682
313.695
313.636
313.515
313.457
313.471
313.56
314.199
297.339
297.221
297.082
297.029
297.025
297.049
297.109
297.662
280.632
280.484
280.386
280.364
280.365
280.381
280.44
280.87
263.449
263.326
263.275
263.251
263.252
263.266
263.309
263.413
245.634
245.596
245.63
245.625
245.623
245.633
245.56
245.682
222.125
222.173
222.198
222.197
222.197
222.198
222.162
222.138
513.741
557.583
557.097
523.173
525.017
557.156
557.649
513.566
491.018
540.574
540.025
543.668
544.618
540.096
539.899
490.689
427.683
526.579
526.055
526.376
529.474
526.146
525.928
547.893
424.413
513.295
512.187
512.288
513.356
512.274
512.11
524.081
413.352
496.281
495.127
495.132
496.788
495.112
495.045
506.946
403.221
477.898
476.529
476.272
476.209
476.332
476.501
489.745
394.322
458.083
456.542
456.22
456.028
456.318
456.553
470.504
387.853
436.711
435.207
435.139
435.191
435.179
435.189
440.292
379.007
413.431
412.09
412.17
412.275
412.185
412.044
409.385
371.37
394.679
395.217
395.177
395.167
395.221
395.162
392.982
366.363
379.265
379.458
379.508
379.447
379.567
379.376
377.257
355.663
363.695
363.913
364.067
364.127
364.087
363.847
361.63
344.64
347.973
348.232
348.649
348.746
348.622
348.152
345.944
329.881
332.07
332.409
332.699
332.843
332.657
332.319
330.029
313.708
315.72
315.705
315.484
315.353
315.406
315.674
313.778
297.301
299.221
298.923
298.689
298.657
298.782
298.995
297.344
280.596
282.491
282.243
282.044
282.042
282.135
282.356
280.662
263.316
265.353
265.241
265.387
265.49
265.336
265.357
263.404
245.619
247.877
248.16
248.303
248.3
248.304
247.96
245.765
222.197
227.56
227.563
227.563
227.562
227.563
227.566
222.198
509.173
559.304
554.538
297.733
303.23
554.757
557.687
510.811
489.476
540.376
539.343
565.126
200.724
537.365
539.578
488.784
431.458
526.101
525.013
446.559
177.77
523.102
525.755
544.702
428.541
511.674
511.64
514.852
135.545
510.449
512.01
520.737
418.63
494.669
494.599
455.898
118.483
509.197
495.202
502.071
407.6
476.18
475.936
417.053
112.118
501.269
476.612
482.329
399.703
456.191
455.548
459.407
181.482
453.945
456.248
456.754
391.589
434.646
434.082
428.421
444.044
431.117
434.569
434.461
383.261
411.253
412.855
410.613
380.305
410.926
412.757
410.325
374.609
394.649
395.99
395.536
129.639
395.812
395.791
393.584
365.503
379.003
380.353
378.134
339.294
378.861
380.327
377.481
355.188
363.496
364.563
364.429
360.975
364.52
364.545
361.592
344.102
348.168
349.614
349.861
346.345
349.967
349.477
346.089
329.979
332.39
334.355
336.687
337.833
336.529
334.125
330.232
313.713
315.832
316.928
316.497
315.015
316.517
316.879
313.837
297.278
299.258
300.139
298.896
298.394
299.004
299.928
297.366
280.624
282.727
282.385
282.244
282.359
282.067
282.309
280.751
263.6
265.838
265.621
265.753
265.733
265.765
265.604
263.651
245.879
248.268
248.303
248.289
248.284
248.291
248.306
245.95
222.223
227.561
227.563
227.561
227.561
227.562
227.563
222.223
512.051
557.84
556.631
213.896
214.431
556.942
561.43
508.45
491.464
540.665
538.631
412.378
186.446
535.211
538.628
491.947
429.536
525.526
524.603
334.985
178.364
521.218
525.098
537.168
426.761
511.822
510.664
487.131
162.028
502.368
510.97
513.998
417.052
494.702
493.619
469.57
149.251
485.486
493.931
496.191
406.938
476.332
475.573
450.386
142.6
467.433
475.776
477.397
399.289
456.404
455.802
426.365
131.743
446.701
455.98
457.103
391.222
434.775
434.169
403.618
114.635
424.138
434.39
435.024
382.821
411.244
411.997
394.407
104.328
400.949
412.149
410.869
374.171
394.625
395.039
378.657
107.745
385.867
395.174
393.894
365.184
379
379.57
365.567
88.6734
372.135
379.668
377.749
355.51
363.498
363.972
350.677
140.453
353.988
364.104
361.744
344.948
348.206
349.386
338.33
299.508
341.081
349.409
346.162
330.047
332.531
335.171
338.182
339.229
334.832
330.297
313.742
315.9
316.957
313.532
276.132
314.278
317.015
313.903
297.286
299.293
299.944
298.545
297.266
298.781
300.039
297.397
280.654
282.739
282.554
282.28
282.157
282.348
282.619
280.749
263.607
265.83
265.78
265.713
265.688
265.728
265.802
263.693
245.889
248.302
248.295
248.279
248.273
248.282
248.3
245.961
222.223
227.561
227.562
227.561
227.561
227.561
227.563
222.223
531.647
557.468
556.917
405.322
405.227
556.996
557.412
531.819
503.83
540.195
539.8
551.223
283.209
541.217
539.794
503.969
427.139
526.059
525.526
525.345
378.559
524.84
525.639
537.442
429.128
511.638
511.128
509.525
484.102
510.076
511.5
515.054
416.184
494.621
493.915
493.066
501.728
493.671
494.277
493.907
405.638
476.361
475.931
476.218
515.828
476.516
476.048
474.984
397.212
456.643
456.701
457.551
448.772
457.532
456.532
454.915
388.047
435.067
435.127
435.322
424.926
435.586
434.821
433.071
376.218
411.718
412.668
411.444
498.477
411.87
412.77
409.641
371.954
394.94
395.56
394.698
393.434
394.901
395.815
393.485
360.78
379.269
380.127
380.19
380.1
379.933
380.099
377.685
355.049
363.607
364.623
364.987
363.983
365.068
364.591
361.527
344.729
348.071
349.458
350.121
349.953
350.187
349.411
345.993
329.894
332.241
333.844
335.53
336.478
335.459
333.781
330.099
313.682
315.829
316.848
316.652
316.236
316.71
316.758
313.843
297.257
299.251
299.921
299.053
298.859
299.232
300.006
297.339
280.506
282.623
282.315
282.177
282.432
282.065
282.356
280.589
263.557
265.594
265.787
265.789
265.773
265.798
265.668
263.607
245.86
248.165
248.261
248.298
248.293
248.3
248.078
245.891
222.161
227.516
227.564
227.563
227.563
227.563
227.567
222.159
547.741
558.075
559.373
560.516
560.291
559.385
558.38
557.908
523.229
536.588
538.228
538.304
537.833
538.1
537.263
531.781
487.65
525.648
525.416
525.449
525.977
525.743
525.976
533.757
474.576
509.605
509.593
509.735
509.863
509.89
509.998
514.64
460.207
492.555
492.948
492.881
492.903
492.851
492.91
496.341
444.723
474.265
474.528
474.55
474.599
474.472
474.489
477.914
427.284
454.336
454.536
454.56
454.6
454.459
454.495
457.072
406.987
432.587
432.744
432.681
432.665
432.595
432.707
433.69
393.091
408.839
409.015
408.859
408.831
408.82
408.989
409.301
379.014
393.135
393.227
393.173
393.184
393.153
393.217
393.501
370.201
377.458
377.592
377.615
377.636
377.595
377.552
377.707
360.568
361.732
361.914
361.994
362.021
361.937
361.805
361.462
345.785
345.925
346.14
346.274
346.329
346.189
346.068
345.84
329.935
329.988
330.148
330.16
330.21
330.122
330.129
329.944
313.694
313.598
313.5
313.349
313.37
313.381
313.633
313.725
297.195
297.017
296.991
296.844
296.841
296.894
297.069
297.25
280.459
280.33
280.284
280.155
280.143
280.18
280.357
280.528
263.38
263.229
263.127
263.117
263.095
263.098
263.217
263.451
245.688
245.46
245.438
245.495
245.486
245.495
245.43
245.579
222.078
222.087
222.107
222.106
222.106
222.107
222.083
222.102
537.832
557.253
554.898
556.01
556.253
555.63
557.016
524.405
520.154
535.894
534.165
534.926
535.002
534.635
536.035
506.785
506.507
522.781
521.168
521.701
521.715
521.399
522.891
497.23
490.243
506.415
504.971
505.366
505.354
505.071
506.493
483.75
471.037
489.275
487.952
488.247
488.229
487.978
489.228
468.344
457.179
470.467
469.415
469.604
469.574
469.399
470.423
451.907
435.825
450.097
449.224
449.318
449.272
449.174
450.04
434.631
417.676
427.889
427.119
427.14
427.085
427.03
427.816
417.272
401.434
405.533
405.03
405.02
405
404.975
405.46
401.39
387.661
389.766
389.247
389.233
389.227
389.225
389.709
387.743
371.518
374.03
373.505
373.5
373.5
373.508
373.996
371.647
355.816
358.26
357.762
357.768
357.768
357.766
358.243
355.961
339.942
342.414
341.898
341.918
341.917
341.903
342.403
340.098
324.034
326.314
325.771
325.776
325.774
325.776
326.304
324.193
308.182
309.842
309.431
309.425
309.425
309.437
309.832
308.344
292.824
292.822
292.88
292.875
292.875
292.885
292.817
293.006
275.73
276.002
275.968
275.964
275.964
275.971
275.986
275.892
258.39
258.586
258.559
258.553
258.552
258.567
258.59
258.521
240.566
240.695
240.688
240.687
240.687
240.702
240.732
240.649
222.287
222.316
222.313
222.312
222.312
222.313
222.318
222.276
512.119
500.66
499.459
512.577
512.101
500.009
499.262
512.239
499.533
499.52
512.193
511.792
499.39
500.043
513.32
499.578
501.25
525.492
163.543
523.829
139.764
512.324
501.344
499.614
164.171
524.389
139.896
525.624
512.184
499.551
499.525
511.677
512.179
499.975
499.691
512.855
499.446
500.177
512.084
513.363
499.559
500.744
495.061
482.625
481.304
495.623
494.896
481.802
481.148
495.086
481.321
481.157
495.019
495.797
481.174
481.368
496.683
481.131
481.397
521.185
135.897
496.917
142.736
495.166
481.438
481.157
135.937
523.709
142.38
500.116
495.116
481.169
481.299
495.695
495.31
480.543
481.441
495.784
481.276
482.086
495.189
496.365
481.429
482.473
476.531
463.174
461.701
476.23
476.345
461.382
461.257
476.323
461.657
461.406
476.315
475.648
461.287
459.062
476.199
461.315
461.067
487.531
155.488
458.097
302.091
476.294
461.057
461.34
155.021
487.709
301.055
457.787
476.503
461.415
461.628
475.003
476.574
458.89
461.34
477.339
461.665
462.56
476.618
477.718
461.527
462.834
456.591
442.206
440.714
456.24
455.96
440.225
439.836
456.307
440.685
440.582
456.078
453.788
439.951
438.257
456.036
440.547
440.557
451.918
399.865
436.998
437.475
456.247
440.554
440.583
400.021
451.85
437.628
436.939
456.513
440.604
440.66
453.745
456.131
438.172
440.026
457.452
440.678
441.493
456.344
457.172
440.211
441.185
435.224
419.403
418.052
434.679
434.288
417.415
417.491
435.154
418.063
418.118
434.409
432.968
417.406
416.536
435.193
418.138
418.25
431.95
427.857
416.126
420.842
435.178
418.25
418.186
427.785
431.899
420.574
416.117
435.183
418.151
418.045
432.897
434.49
416.489
417.386
435.99
418.021
418.668
434.672
435.53
417.469
417.424
412.075
399.331
399.124
411.29
412.984
398.6
397.789
412.151
399.145
399.136
412.948
411.861
397.957
397.978
412.276
399.124
399.141
411.655
444.674
397.981
473.122
412.22
399.138
399.157
443.936
411.607
467.41
398.018
412.073
399.157
399.131
411.824
412.942
398.009
397.965
412.693
399.103
399.052
412.976
411.277
397.731
398.589
395.183
383.202
383.334
394.684
395.79
382.947
382.333
395.2
383.389
383.438
396.027
396.111
382.334
381.541
395.169
383.394
383.333
396.118
440.877
381.167
499.038
395.209
383.33
383.425
433.534
396.16
497.91
381.148
395.203
383.455
383.369
396.148
396.037
381.533
382.332
394.862
383.308
383.217
395.796
394.671
382.339
382.93
379.4
367.6
367.724
379.044
380.365
367.426
366.518
379.548
367.762
367.901
380.362
379.439
366.462
365.663
379.451
367.917
367.962
379.02
420.458
365.579
364.063
379.543
367.959
367.957
420.253
378.993
364.042
365.556
379.44
367.928
367.751
379.424
380.359
365.637
366.461
379.289
367.703
367.621
380.369
379.025
366.524
367.407
363.867
351.923
352.124
363.618
364.602
352.037
351.38
364.051
352.19
352.505
364.602
364.838
351.432
351.013
364.131
352.543
352.64
364.723
363.55
350.892
348.373
364.108
352.633
352.583
363.629
364.705
348.368
350.864
363.902
352.534
352.182
364.814
364.607
350.99
351.437
363.718
352.103
351.944
364.609
363.597
351.39
352.014
348.174
336.1
336.363
348.152
349.474
336.363
336.056
348.592
336.431
336.713
349.563
350.157
336.209
337.246
348.762
336.791
336.962
350.041
347.694
337.391
338.45
348.689
336.956
336.837
347.689
350.013
338.453
337.37
348.226
336.742
336.422
350.133
349.569
337.239
336.216
347.995
336.34
336.121
349.485
348.129
336.071
336.338
332.341
319.814
319.888
332.339
334.002
319.997
319.068
332.633
319.886
319.879
334.204
336.247
319.07
317.934
332.849
319.836
319.74
336.396
337.498
317.892
316.675
332.736
319.739
319.749
337.501
336.376
316.675
317.86
332.4
319.743
319.84
336.241
334.208
317.907
319.043
332.092
319.852
319.827
334.018
332.311
319.044
319.936
315.73
303.315
303.122
315.863
316.837
303.403
302.084
315.564
303.054
302.912
316.85
316.708
302.017
301.158
315.345
302.853
302.827
316.644
315.434
301.064
300.556
315.384
302.802
302.903
315.435
316.613
300.561
301.026
315.612
302.94
303.044
316.663
316.803
301.149
302.023
315.741
303.119
303.347
316.88
315.806
302.095
303.393
298.993
286.725
286.565
299.242
300.029
286.966
285.486
298.749
286.446
286.261
300.01
299.133
285.327
284.929
298.674
286.219
286.233
299.053
298.613
284.905
285.397
298.741
286.231
286.258
298.614
299.014
285.398
284.879
298.92
286.304
286.469
299.124
299.913
284.941
285.469
299.256
286.565
286.844
300.008
299.241
285.488
286.943
282.334
269.662
269.603
282.712
282.233
269.907
269.601
282.076
269.533
269.421
282.153
281.883
269.538
269.99
282.047
269.478
269.565
281.998
282.313
270.029
270.007
282.103
269.57
269.523
282.314
281.991
270.007
270.029
282.287
269.517
269.605
281.987
282.268
269.993
269.656
282.619
269.64
269.783
282.352
282.662
269.755
269.903
265.305
252.266
252.33
265.687
265.33
252.485
252.732
265.216
252.422
252.764
265.377
265.786
252.763
252.75
265.487
252.763
252.76
265.776
265.76
252.747
252.741
265.431
252.76
252.763
265.76
265.777
252.741
252.747
265.362
252.764
252.408
265.786
265.427
252.75
252.763
265.469
252.294
252.32
265.427
265.711
252.735
252.535
247.995
236.653
236.704
248.152
248.312
236.725
236.726
248.304
236.726
236.725
248.307
248.296
236.723
236.721
248.3
236.724
236.723
248.294
248.29
236.719
236.718
248.303
236.723
236.724
248.29
248.294
236.718
236.719
248.15
236.725
236.726
248.296
248.307
236.721
236.723
247.922
236.681
236.65
248.316
248.182
236.725
236.723
511.719
499.064
498.882
511.95
511.161
499.233
498.665
510.832
498.906
509.092
510.681
501.7
498.302
489.394
134.969
478.019
121.541
485.742
198.82
472.769
177.734
511.521
122.191
473.079
194.223
486.118
174.779
472.679
511.95
507.085
499.576
502.24
510.928
489.377
498.351
513.177
499.533
500.322
511.24
511.942
498.651
499.228
494.554
480.944
480.852
494.851
494.345
481.192
480.885
510.91
480.816
511.55
494.078
485.091
480.7
471.738
118.089
410.953
110.805
468.418
171.342
454.611
152.628
449.566
111.332
406.731
168.886
468.293
151.902
454.431
495.252
508.857
481.37
485.064
494.057
471.63
480.663
495.947
481.424
482.33
494.331
494.846
480.861
481.188
476.037
461.328
460.953
476.447
476.185
461.614
461.397
503.192
460.785
463.932
476.005
466.935
461.162
451.23
111.506
464.5
144.49
449.378
146.471
431.39
131.116
413.798
144.46
463.922
146.264
449.183
131.925
431.132
476.49
463.168
461.126
466.812
475.969
451.096
461.121
477.597
461.452
462.479
476.16
476.444
461.366
461.615
455.752
440.192
439.661
456.465
456.249
440.395
439.969
453.353
439.605
436.443
455.984
445.691
439.812
428.767
180.023
433.042
476.191
425.036
127.786
406.907
118.995
457.307
483.617
432.769
128.793
424.752
120.537
406.724
455.882
436.238
439.814
445.561
455.944
428.649
439.784
456.362
440.169
440.354
456.217
456.468
439.947
440.403
434.113
417.295
417.126
434.817
434.31
417.355
416.762
431.287
417.144
414.986
434.063
423.01
416.381
406.029
441.106
413.058
277.598
402.862
115.481
390.379
109.27
428.132
279.928
412.81
117.185
402.705
111.615
390.363
434.298
414.855
417.01
422.901
434.044
406.033
416.392
434.724
417.07
417.305
434.292
434.826
416.767
417.37
412.795
398.567
397.683
411.288
412.137
398.566
397.117
411.034
397.914
397.605
411.998
400.433
396.993
387.149
379.069
397.361
140.84
394.272
103.96
380.377
140.198
410.502
141.237
397.387
105.047
394.307
141.64
380.496
412.838
397.635
397.916
400.451
412.009
387.245
397.006
411.266
397.669
398.574
412.143
411.302
397.129
398.572
395.804
382.908
382.329
394.648
395.182
382.913
381.617
395.771
382.324
381.03
395.063
385.517
381.518
373.865
130.125
380.335
233.228
378.918
134.674
368.044
95.2773
395.578
230.688
380.309
135.707
379.018
95.6159
367.93
395.992
381.023
382.311
385.602
395.075
373.816
381.514
394.655
382.3
382.911
395.193
394.652
381.615
382.914
380.357
367.35
366.482
379.007
379.657
367.354
366.013
378.88
366.335
365.408
379.552
371.774
365.88
354.418
339.051
365.26
361.948
365.899
89.9
350.945
126.067
378.094
361.943
365.216
90.2805
365.767
143.346
350.915
380.338
365.363
366.314
371.714
379.547
354.387
365.878
379.005
366.445
367.353
379.654
379.007
366.012
367.355
364.583
352.033
351.416
363.499
364.102
352.023
351.192
364.555
351.467
350.839
363.968
353.443
351.137
341.421
360.996
350.698
346.913
349.972
152.547
338.442
151.078
364.395
346.91
350.665
188.849
349.951
165.888
338.363
364.54
350.812
351.442
353.419
363.967
341.355
351.137
363.498
351.376
352.036
364.101
363.5
351.192
352.025
349.518
336.418
336.191
348.211
349.423
336.563
336.883
349.996
336.369
337.56
349.403
340.595
337.225
339.374
346.349
337.691
338.709
337.567
156.434
338.099
167.52
349.827
338.711
337.663
174.987
337.486
169.986
338.057
349.589
337.539
336.34
340.526
349.402
339.36
337.229
348.171
336.147
336.419
349.424
348.213
336.886
336.564
334.171
319.991
319.145
332.54
334.881
320.099
319.273
336.549
319.156
317.843
335.238
339.334
319.259
315.573
337.83
317.769
316.248
338.324
165.481
314.762
270.716
336.658
316.243
317.719
168.101
338.295
270.701
314.746
334.323
317.76
319.071
339.331
335.243
315.558
319.259
332.387
319.038
319.954
334.886
332.542
319.274
320.099
316.959
303.414
302.072
315.902
317.015
303.419
302.084
316.59
302.033
300.982
316.955
314.223
301.977
300.542
315.019
300.881
300.278
313.447
277.908
300.229
298.432
316.451
300.279
300.852
277.895
313.431
298.431
300.224
316.87
301.006
301.958
314.208
316.954
300.537
301.976
315.803
302.017
303.356
317.015
315.902
302.083
303.42
300.086
286.932
285.512
299.288
300.035
286.892
285.713
298.977
285.408
285.007
299.937
298.74
285.678
285.352
298.395
285.1
285.423
298.498
297.191
285.306
285.102
298.867
285.423
284.994
297.191
298.493
285.102
285.306
299.848
284.985
285.442
298.735
299.936
285.351
285.678
299.202
285.449
286.938
300.034
299.289
285.713
286.892
282.444
270.086
269.899
282.734
282.615
270.101
270.062
282.125
269.826
270.013
282.548
282.338
270.033
269.96
282.359
269.998
269.969
282.269
282.143
269.938
269.9
282.228
269.969
269.997
282.143
282.269
269.9
269.938
282.275
270.013
269.843
282.339
282.548
269.96
270.033
282.739
269.917
270.044
282.615
282.734
270.063
270.101
265.582
252.652
252.764
265.827
265.801
252.758
252.755
265.765
252.758
252.742
265.779
265.726
252.748
252.728
265.733
252.739
252.732
265.711
265.685
252.724
252.715
265.753
252.732
252.739
265.685
265.711
252.715
252.724
265.634
252.742
252.758
265.726
265.779
252.728
252.748
265.812
252.764
252.71
265.801
265.827
252.755
252.758
248.306
236.723
236.723
248.3
248.3
236.722
236.722
248.291
236.72
236.716
248.295
248.281
236.717
236.714
248.284
236.714
236.713
248.278
248.272
236.712
236.711
248.289
236.713
236.714
248.272
248.278
236.711
236.712
248.303
236.716
236.72
248.281
248.295
236.714
236.717
248.301
236.723
236.723
248.3
248.3
236.722
236.722
510.952
499.086
498.256
511.714
510.821
499.11
498.243
502.077
497.951
489.556
510.599
510.042
498.081
496.33
161.268
473.718
151.482
515.063
285.313
494.801
489.373
487.927
151.751
474.291
290.78
517.077
497.005
495.318
510.678
489.767
497.978
509.88
510.956
496.882
498.284
511.847
498.277
499.111
511.121
511.368
498.25
498.748
493.914
481.063
480.451
494.76
493.929
481.207
480.548
485.309
480.222
472.087
493.798
492.317
480.677
479.986
149.448
455.63
145.303
491.101
438.432
479.514
285.617
470.031
144.029
455.846
446.943
491.706
286.3
479.924
493.644
472.16
480.222
492.865
493.914
480.399
480.684
494.725
480.451
481.08
493.937
494.397
480.552
480.843
475.783
461.541
461.122
476.507
475.917
461.802
461.666
467.406
460.922
452.181
476.077
475.63
461.767
461.74
143.923
432.732
136.211
475.458
245.25
463.654
177.353
450.575
135.507
432.841
245.928
475.815
177.641
463.687
475.562
452.127
460.885
475.959
476.076
461.762
461.753
476.347
461.094
461.556
475.987
476.143
461.662
461.441
456.01
440.352
439.995
456.686
456.538
440.66
440.713
446.777
439.761
429.967
456.651
456.635
440.807
440.493
132.226
407.629
118.453
459.682
164.436
444.834
143.355
426.534
118.684
407.771
164.655
459.689
143.636
444.583
455.763
429.914
439.73
456.641
456.63
440.442
440.709
456.42
439.968
440.375
456.528
456.327
440.609
440.299
434.413
417.312
416.843
435.082
435.038
417.687
417.166
424.177
416.519
406.957
435.12
434.518
417.084
415.83
114.297
391.368
106.908
437.94
142.863
413.779
181.313
403.845
107.544
391.659
143.28
437.593
183.202
413.915
434.144
406.967
416.515
434.451
434.924
415.766
417.069
434.799
416.837
417.341
434.844
434.718
417.157
417.314
412.149
398.541
397.101
411.613
412.637
398.78
397.488
400.902
396.971
387.405
412.622
411.372
397.457
396.342
103.569
380.158
109.347
410.859
606.1
395.959
393.161
394.552
111.254
380.442
607.797
410.714
393.278
396.009
412.004
387.536
396.986
411.312
412.632
396.39
397.457
411.273
397.112
398.556
412.637
411.24
397.509
398.548
395.164
382.902
381.627
394.865
395.544
383.14
382.04
385.738
381.531
374.137
395.514
394.532
382.038
381.929
106.147
367.589
89.1321
394.206
392.38
381.839
387.546
378.912
90.4314
367.605
392.423
394.259
386.377
381.868
395.053
374.122
381.528
394.538
395.6
381.697
382.024
394.638
381.625
382.91
395.627
394.634
382.015
382.922
379.671
367.352
366.019
379.235
380.109
367.49
366.464
372.165
365.887
355.014
380.108
380.068
366.448
365.679
87.2755
351.646
115.013
379.901
385.445
365.605
364.296
365.564
138.274
351.621
384.025
379.908
364.32
365.845
379.566
354.966
365.885
379.726
380.084
365.935
366.433
379.006
366.018
367.356
380.074
379.024
366.443
367.332
364.105
352.02
351.18
363.633
364.585
352.016
351.322
354.032
351.126
341.98
364.57
364.698
351.386
350.997
116.602
339.181
120.908
364.619
363.301
350.954
350.57
350.654
205.016
339.1
363.321
364.857
350.571
350.962
363.971
341.901
351.127
364.952
364.558
350.936
351.393
363.501
351.181
352.023
364.566
363.467
351.327
351.999
349.408
336.552
336.821
348.116
349.449
336.343
335.917
341.164
337.152
339.321
349.529
350.116
336.063
336.673
142.59
338.065
67.0112
350.062
349.686
336.72
337.776
338.249
67.6878
338.061
349.686
350.08
337.777
336.781
349.387
339.331
337.159
350.117
349.536
336.695
336.077
348.209
336.826
336.554
349.453
348.116
335.921
336.341
334.826
320.094
319.269
332.322
333.91
319.958
319.05
339.207
319.257
315.636
334.009
335.687
318.982
317.836
314.838
266.13
335.742
336.812
317.724
317.181
338.193
266.112
314.819
336.813
335.778
317.179
317.754
335.178
315.619
319.257
335.7
334.019
317.839
318.953
332.533
319.269
320.097
333.912
332.319
318.963
319.954
317.015
303.423
302.089
315.822
316.903
303.387
302.048
314.295
301.984
300.596
316.788
316.656
301.974
301.284
276.145
300.293
298.538
316.556
316.005
301.015
300.591
313.514
298.538
300.292
316.003
316.585
300.59
301.018
316.957
300.596
301.985
316.658
316.81
301.305
301.976
315.903
302.089
303.425
316.836
315.82
302.048
303.383
300.039
286.896
285.715
299.252
299.943
286.912
285.431
298.781
285.681
285.359
299.856
299.249
285.404
285.157
297.267
285.314
285.113
298.995
298.643
285.452
285.504
298.544
285.113
285.313
298.642
298.991
285.504
285.395
299.945
285.358
285.68
299.276
299.857
285.151
285.405
299.295
285.714
286.898
299.953
299.245
285.431
286.906
282.62
270.105
270.065
282.588
282.297
269.895
269.991
282.348
270.036
269.963
282.237
282.357
270.035
270.029
282.157
269.941
269.904
282.486
282.416
270.014
269.989
282.279
269.904
269.941
282.415
282.433
269.989
270.014
282.554
269.963
270.035
282.35
282.241
270.029
270.037
282.741
270.064
270.107
282.3
282.635
269.995
269.853
265.802
252.761
252.756
265.732
265.822
252.756
252.646
265.729
252.748
252.729
265.81
265.776
252.71
252.746
265.688
252.724
252.716
265.765
265.747
252.743
252.736
265.713
252.716
252.724
265.748
265.765
252.736
252.743
265.78
252.729
252.748
265.776
265.811
252.746
252.71
265.832
252.756
252.763
265.823
265.715
252.589
252.768
248.3
236.722
236.722
248.259
248.3
236.71
236.724
248.282
236.718
236.715
248.304
248.294
236.72
236.717
248.273
236.712
236.711
248.292
248.287
236.715
236.714
248.279
236.711
236.712
248.287
248.292
236.714
236.715
248.295
236.715
236.718
248.294
248.304
236.717
236.72
248.304
236.722
236.722
248.257
248.271
236.723
236.692
511.201
498.98
498.243
512.7
511.689
499.899
499.12
510.034
498.315
497.625
511.646
511.418
499.102
499.003
482.68
497.134
504.629
511.343
511.068
498.974
498.947
509.197
503.702
497.169
511.058
511.334
498.943
498.971
511.444
497.796
498.651
511.397
511.646
498.994
499.109
511.47
498.598
498.665
511.705
512.452
499.14
499.704
493.908
481.059
480.513
495.585
494.798
482.008
481.342
493.415
480.519
480.626
494.794
494.739
481.375
481.411
502.39
480.506
513.791
494.725
494.738
481.435
481.507
493.163
512.261
480.718
494.736
494.722
481.507
481.429
494.25
480.944
480.894
494.731
494.8
481.403
481.381
494.313
480.707
480.778
494.819
495.378
481.367
481.857
475.888
461.679
461.665
477.351
476.675
462.611
462.059
476.289
461.812
462.492
476.717
476.765
462.113
462.144
517.37
462.484
487.046
476.798
476.873
462.19
462.236
476.348
486.516
462.476
476.874
476.791
462.238
462.183
476.236
462.479
461.99
476.757
476.723
462.137
462.12
476.091
461.652
461.434
476.702
477.191
462.091
462.478
456.543
440.628
440.873
457.542
456.971
441.484
441.003
457.557
440.834
441.584
457.018
457.028
441.03
440.938
450.68
441.323
415.07
457.071
457.092
440.951
440.869
457.545
415.178
441.287
457.094
457.064
440.869
440.943
456.888
441.535
440.748
457.02
457.025
440.928
441.03
456.385
440.692
440.426
457.001
457.406
441.026
441.124
435.106
417.788
417.166
435.737
435.439
418.296
418.013
435.635
417.32
417.108
435.457
435.326
418.005
417.777
424.411
416.533
462.682
435.322
435.21
417.72
417.551
435.309
461.916
416.505
435.209
435.313
417.55
417.709
434.954
417.091
417.317
435.314
435.452
417.763
417.981
434.883
417.214
417.569
435.455
435.637
418.028
418.156
412.618
398.851
397.538
412.169
411.968
399.063
399.051
411.907
397.507
396.787
411.964
411.723
399.047
398.933
500.877
396.515
394.864
411.657
411.494
398.904
398.857
411.444
394.902
396.563
411.493
411.645
398.857
398.895
412.771
396.813
397.585
411.704
411.925
398.917
399.021
411.51
397.724
398.707
411.977
412.136
399.031
399.026
395.591
383.183
382.068
395.25
395.109
383.457
383.319
394.934
382.059
382.101
395.152
395.06
383.418
383.449
393.4
382.068
381.948
395.04
395.012
383.443
383.442
394.745
381.985
381.958
395.012
395.031
383.442
383.443
395.717
381.845
382.035
395.047
395.126
383.448
383.411
394.79
382.04
383.043
395.121
395.002
383.376
383.149
380.135
367.481
366.543
379.535
379.446
367.719
367.733
380.204
366.553
366.054
379.477
379.565
367.748
367.849
380.074
365.972
364.985
379.556
379.556
367.865
367.878
380.061
365
365.982
379.556
379.563
367.879
367.896
380.095
366.046
366.524
379.57
379.504
367.885
367.761
379.135
366.519
367.416
379.471
379.251
367.718
367.472
364.606
351.974
351.288
363.784
363.857
351.883
352.063
365.072
351.334
351.058
363.867
363.964
352.091
352.252
363.971
351.018
350.84
364
364.009
352.311
352.446
365
350.842
351.06
364.01
364.04
352.446
352.3
364.6
351.084
351.333
364.005
363.857
352.239
352.092
363.545
351.298
351.957
363.804
363.603
352.071
351.885
349.402
336.259
335.775
347.945
348.109
336.061
336.281
350.17
335.89
336.452
348.148
348.319
336.33
336.503
349.952
336.516
337.476
348.361
348.522
336.563