/*--------------------------------*- C++ -*----------------------------------*\
| =========                 |                                                 |
| \\      /  F ield         | OpenFOAM: The Open Source CFD Toolbox           |
|  \\    /   O peration     | Version:  2206                                  |
|   \\  /    A nd           | Website:  www.openfoam.com                      |
|    \\/     M anipulation  |                                                 |
\*---------------------------------------------------------------------------*/
FoamFile
{
    version     2.0;
    format      ascii;
    arch        "LSB;label=32;scalar=64";
    class       volScalarField;
    location    "800";
    object      ReThetat;
}
// * * * * * * * * * * * * * * * * * * * * * * * * * * * * * * * * * * * * * //

dimensions      [0 0 0 0 0 0 0];

internalField   nonuniform List<scalar> 
187974
(
528.168
546.65
550.621
557.243
556.996
550.358
546.903
526.713
509.734
531.442
532.868
535.796
535.897
532.549
531.962
508.066
498.793
519.618
518.905
520.875
520.924
518.849
520.344
496.976
487.08
501.889
501.082
502.47
502.59
501.297
502.59
485.042
471.885
482.299
481.034
482.573
482.73
481.222
483.003
469.64
455.095
462.252
461.075
461.413
461.523
461.093
462.994
452.726
436.969
443.146
441.9
440.34
440.344
441.724
443.979
434.75
416.982
422.613
421.256
420.366
420.299
421.104
423.564
414.464
400.645
402.552
402.127
402.201
402.183
402.057
403.272
398.538
387.137
387.845
387.565
387.417
387.416
387.477
388.618
385.06
371.532
373.055
372.449
372.271
372.273
372.417
373.405
369.98
357.055
357.862
357.382
357.185
357.191
357.397
358.532
355.197
340.915
341.9
342.035
342.089
342.09
342.025
342.521
339.142
324.869
325.858
325.833
325.803
325.796
325.792
326.41
323.227
308.621
309.529
309.467
309.45
309.44
309.439
309.912
307.413
292.168
292.936
292.887
292.879
292.877
292.877
292.855
292.221
276.044
275.975
275.955
275.961
275.962
275.956
275.956
275.766
258.479
258.575
258.552
258.548
258.548
258.552
258.575
258.511
240.202
240.273
240.262
240.261
240.261
240.262
240.274
240.196
223.575
223.608
223.606
223.605
223.605
223.606
223.609
223.574
536.355
563.581
559.724
557.874
557.942
559.862
564.165
536.577
514.745
539.968
537.001
536.019
536.015
537.153
540.388
515.545
491.027
532.804
527.834
526.26
526.251
527.871
532.21
551.698
470.948
510.577
509.94
509.939
509.928
509.939
510.667
523.028
451.148
493.906
493.745
493.004
492.99
493.828
493.567
501.174
429.007
478.05
477.723
476.725
476.752
478.552
477.361
481.119
407.937
458.129
457.459
460.913
461.264
460.02
457.36
459.783
397.86
434.577
434.731
439.13
439.501
437.435
434.037
436.242
387.869
410.121
410.853
412.84
412.805
412.98
409.988
412.244
377.232
393.931
393.463
393.532
393.572
393.59
393.617
394.902
367.049
377.357
377.515
377.52
377.519
377.527
377.54
377.756
357.53
361.695
361.848
361.884
361.881
361.883
361.734
362.138
346.12
345.919
346.052
346.14
346.161
346.118
345.971
346.367
329.867
329.98
330.051
330.062
330.067
330.038
330.023
330.485
313.682
313.695
313.636
313.515
313.457
313.471
313.56
314.199
297.339
297.221
297.082
297.029
297.025
297.049
297.109
297.661
280.632
280.484
280.386
280.364
280.365
280.381
280.44
280.868
263.449
263.326
263.275
263.251
263.252
263.266
263.309
263.413
245.629
245.591
245.626
245.62
245.618
245.628
245.555
245.677
223.424
223.46
223.482
223.481
223.481
223.482
223.452
223.434
513.745
557.583
557.098
523.214
525.136
557.156
557.649
513.562
491.026
540.574
540.025
543.663
544.598
540.096
539.899
490.687
427.707
526.579
526.055
526.376
529.458
526.146
525.928
547.912
424.436
513.295
512.187
512.288
513.344
512.273
512.11
524.09
413.375
496.28
495.127
495.132
496.769
495.112
495.044
506.948
403.243
477.897
476.528
476.272
476.206
476.333
476.501
489.745
394.354
458.083
456.542
456.22
456.03
456.319
456.553
470.505
387.879
436.712
435.207
435.139
435.192
435.18
435.19
440.272
379.032
413.431
412.09
412.17
412.275
412.185
412.045
409.385
371.407
394.679
395.217
395.177
395.166
395.221
395.162
392.982
366.379
379.265
379.458
379.508
379.447
379.567
379.376
377.256
355.688
363.695
363.913
364.067
364.127
364.087
363.847
361.63
344.663
347.973
348.232
348.649
348.746
348.622
348.152
345.944
329.881
332.07
332.409
332.699
332.843
332.657
332.319
330.029
313.708
315.72
315.705
315.484
315.353
315.406
315.674
313.778
297.301
299.221
298.923
298.689
298.657
298.782
298.995
297.344
280.596
282.491
282.243
282.044
282.042
282.135
282.356
280.662
263.316
265.353
265.241
265.387
265.49
265.336
265.357
263.404
245.615
247.877
248.16
248.303
248.3
248.304
247.96
245.76
223.481
226.723
226.727
226.726
226.725
226.726
226.729
223.483
509.182
559.303
554.54
297.725
303.117
554.757
557.687
510.816
489.485
540.375
539.344
564.988
200.708
537.367
539.578
488.79
431.489
526.101
525.013
446.278
177.755
523.104
525.754
544.704
428.568
511.673
511.64
514.831
135.506
510.441
512.01
520.738
418.655
494.668
494.599
455.599
118.446
509.099
495.201
502.072
407.623
476.18
475.935
416.964
112.124
501.084
476.612
482.317
399.727
456.191
455.548
459.376
181.653
453.926
456.248
456.755
391.613
434.646
434.082
428.424
443.939
431.123
434.57
434.461
383.286
411.253
412.855
410.615
380.378
410.93
412.758
410.324
374.634
394.649
395.99
395.537
129.617
395.813
395.791
393.583
365.527
379.002
380.353
378.131
340.279
378.859
380.327
377.48
355.214
363.496
364.563
364.429
360.959
364.521
364.545
361.593
344.129
348.168
349.614
349.861
346.346
349.968
349.477
346.089
329.979
332.39
334.355
336.687
337.833
336.529
334.125
330.232
313.713
315.832
316.928
316.497
315.015
316.517
316.879
313.837
297.278
299.258
300.139
298.896
298.394
299.004
299.928
297.366
280.624
282.727
282.385
282.244
282.359
282.067
282.309
280.751
263.6
265.838
265.621
265.753
265.733
265.765
265.604
263.651
245.874
248.268
248.303
248.289
248.284
248.291
248.307
245.946
223.505
226.724
226.726
226.725
226.724
226.725
226.726
223.505
512.06
557.84
556.634
213.884
214.401
556.944
561.428
508.461
491.472
540.664
538.631
412.539
186.457
535.211
538.628
491.954
429.566
525.526
524.603
335.104
178.412
521.217
525.098
537.166
426.788
511.822
510.664
487.135
162.049
502.366
510.969
513.998
417.077
494.702
493.619
469.573
149.249
485.485
493.931
496.19
406.962
476.332
475.574
450.388
142.596
467.431
475.775
477.396
399.312
456.404
455.802
426.365
131.746
446.699
455.979
457.103
391.246
434.775
434.168
403.618
114.648
424.137
434.391
435.023
382.846
411.244
411.997
394.406
104.371
400.95
412.149
410.868
374.196
394.625
395.039
378.659
107.696
385.87
395.174
393.893
365.208
379
379.57
365.565
88.666
372.133
379.668
377.748
355.531
363.498
363.972
350.676
140.47
353.987
364.104
361.743
344.971
348.206
349.386
338.33
299.801
341.081
349.409
346.162
330.047
332.531
335.171
338.182
339.229
334.832
330.297
313.742
315.9
316.957
313.532
276.132
314.278
317.015
313.903
297.286
299.293
299.944
298.545
297.266
298.781
300.039
297.397
280.654
282.739
282.554
282.28
282.157
282.348
282.619
280.749
263.607
265.83
265.78
265.713
265.688
265.728
265.802
263.693
245.885
248.302
248.295
248.279
248.273
248.282
248.3
245.956
223.505
226.724
226.725
226.724
226.724
226.725
226.726
223.506
531.65
557.468
556.917
405.152
404.979
556.996
557.413
531.821
503.829
540.195
539.8
551.216
283.004
541.223
539.793
503.97
427.154
526.059
525.526
525.334
378.435
524.838
525.639
537.439
429.152
511.638
511.128
509.523
484.149
510.074
511.499
515.043
416.208
494.621
493.915
493.066
501.752
493.671
494.277
493.905
405.661
476.361
475.931
476.218
515.861
476.516
476.048
474.983
397.235
456.643
456.701
457.551
448.59
457.532
456.532
454.914
388.07
435.067
435.127
435.321
424.856
435.585
434.821
433.071
376.252
411.718
412.668
411.444
498.404
411.868
412.77
409.641
371.985
394.94
395.56
394.699
393.435
394.901
395.815
393.485
360.807
379.269
380.127
380.19
380.101
379.932
380.099
377.685
355.078
363.607
364.623
364.987
363.983
365.067
364.591
361.527
344.752
348.071
349.458
350.121
349.953
350.187
349.411
345.993
329.894
332.241
333.844
335.53
336.478
335.459
333.781
330.099
313.682
315.829
316.848
316.652
316.236
316.71
316.758
313.843
297.257
299.251
299.921
299.053
298.859
299.232
300.006
297.339
280.506
282.623
282.315
282.177
282.432
282.065
282.356
280.589
263.557
265.594
265.787
265.789
265.773
265.798
265.668
263.607
245.856
248.165
248.261
248.298
248.293
248.3
248.078
245.886
223.452
226.669
226.727
226.726
226.726
226.727
226.73
223.451
547.766
558.075
559.373
560.519
560.296
559.385
558.38
557.909
523.245
536.587
538.228
538.305
537.835
538.1
537.263
531.779
487.65
525.648
525.416
525.448
525.977
525.743
525.975
533.757
474.577
509.605
509.593
509.734
509.862
509.89
509.998
514.639
460.207
492.555
492.948
492.881
492.903
492.851
492.91
496.34
444.723
474.265
474.528
474.55
474.599
474.472
474.489
477.914
427.285
454.336
454.536
454.56
454.6
454.459
454.495
457.072
406.987
432.587
432.744
432.681
432.665
432.595
432.707
433.69
393.092
408.839
409.015
408.859
408.831
408.82
408.989
409.3
379.038
393.135
393.227
393.173
393.184
393.153
393.217
393.501
370.226
377.458
377.592
377.615
377.636
377.595
377.552
377.707
360.577
361.732
361.914
361.994
362.021
361.937
361.805
361.462
345.785
345.925
346.14
346.274
346.329
346.189
346.068
345.84
329.935
329.988
330.148
330.16
330.21
330.122
330.129
329.944
313.694
313.598
313.5
313.349
313.37
313.381
313.633
313.725
297.195
297.017
296.991
296.844
296.841
296.894
297.069
297.25
280.459
280.33
280.284
280.155
280.143
280.18
280.357
280.528
263.38
263.229
263.127
263.117
263.095
263.098
263.217
263.451
245.683
245.455
245.433
245.49
245.481
245.49
245.426
245.574
223.384
223.392
223.41
223.41
223.41
223.411
223.388
223.404
537.839
557.253
554.898
556.01
556.253
555.63
557.016
524.41
520.157
535.894
534.165
534.926
535.002
534.635
536.035
506.791
506.51
522.781
521.168
521.701
521.715
521.398
522.891
497.235
490.243
506.415
504.971
505.366
505.354
505.071
506.493
483.755
471.042
489.275
487.952
488.247
488.229
487.978
489.228
468.348
457.179
470.467
469.415
469.604
469.574
469.399
470.423
451.91
435.83
450.097
449.224
449.318
449.272
449.174
450.04
434.636
417.681
427.889
427.119
427.14
427.085
427.03
427.816
417.278
401.439
405.533
405.03
405.02
405
404.975
405.46
401.395
387.661
389.766
389.247
389.233
389.227
389.225
389.709
387.742
371.518
374.03
373.505
373.5
373.5
373.508
373.996
371.646
355.816
358.26
357.762
357.768
357.768
357.766
358.243
355.961
339.942
342.414
341.898
341.918
341.917
341.903
342.403
340.098
324.035
326.314
325.771
325.776
325.774
325.776
326.304
324.194
308.192
309.839
309.431
309.425
309.425
309.437
309.83
308.354
292.824
292.822
292.88
292.875
292.875
292.885
292.817
293.006
275.73
276.003
275.968
275.964
275.964
275.971
275.986
275.892
258.39
258.584
258.557
258.552
258.551
258.565
258.588
258.52
240.145
240.27
240.263
240.263
240.263
240.279
240.311
240.226
223.587
223.609
223.606
223.605
223.605
223.607
223.611
223.577
512.119
500.659
499.459
512.577
512.101
500.009
499.262
512.239
499.533
499.52
512.194
511.795
499.39
500.044
513.318
499.578
501.245
525.481
163.596
523.794
139.814
512.323
501.324
499.613
164.281
524.315
139.981
525.48
512.183
499.55
499.525
511.672
512.177
499.957
499.689
512.856
499.446
500.178
512.083
513.363
499.557
500.744
495.061
482.624
481.304
495.623
494.897
481.802
481.148
495.085
481.321
481.157
495.019
495.798
481.174
481.366
496.678
481.131
481.394
521.139
135.951
496.855
142.833
495.166
481.431
481.157
136.023
523.545
142.521
499.962
495.116
481.169
481.299
495.673
495.309
480.53
481.44
495.785
481.276
482.087
495.188
496.365
481.428
482.473
476.531
463.174
461.701
476.23
476.344
461.381
461.257
476.323
461.657
461.406
476.314
475.646
461.286
459.061
476.198
461.315
461.067
487.479
155.618
458.093
302.447
476.294
461.059
461.341
155.204
487.593
301.5
457.783
476.503
461.416
461.628
474.997
476.574
458.896
461.341
477.34
461.665
462.56
476.617
477.718
461.527
462.834
456.591
442.206
440.714
456.24
455.959
440.225
439.835
456.307
440.685
440.582
456.077
453.788
439.951
438.257
456.037
440.548
440.558
451.918
400.137
437
437.447
456.248
440.555
440.584
400.322
451.857
437.589
436.946
456.513
440.605
440.66
453.751
456.132
438.177
440.027
457.452
440.679
441.493
456.344
457.173
440.212
441.185
435.224
419.403
418.052
434.679
434.288
417.415
417.491
435.154
418.064
418.118
434.409
432.969
417.406
416.537
435.194
418.138
418.251
431.952
427.859
416.128
420.859
435.179
418.25
418.186
427.788
431.905
420.596
416.121
435.184
418.151
418.045
432.901
434.491
416.492
417.387
435.99
418.022
418.668
434.673
435.531
417.47
417.424
412.075
399.331
399.124
411.29
412.984
398.6
397.789
412.151
399.145
399.136
412.949
411.863
397.957
397.979
412.276
399.124
399.14
411.658
444.761
397.982
473.674
412.22
399.138
399.156
444.01
411.611
467.615
398.019
412.073
399.157
399.131
411.827
412.943
398.01
397.966
412.693
399.103
399.052
412.977
411.277
397.732
398.589
395.183
383.202
383.334
394.684
395.79
382.947
382.333
395.2
383.389
383.438
396.028
396.112
382.333
381.539
395.169
383.394
383.333
396.119
441.21
381.164
498.309
395.209
383.329
383.425
433.35
396.161
496.899
381.144
395.203
383.455
383.369
396.148
396.037
381.531
382.332
394.862
383.308
383.217
395.796
394.671
382.338
382.929
379.4
367.6
367.724
379.044
380.364
367.426
366.518
379.548
367.762
367.901
380.362
379.437
366.462
365.663
379.451
367.918
367.963
379.018
420.105
365.579
364.071
379.543
367.959
367.957
419.798
378.99
364.056
365.557
379.44
367.928
367.751
379.422
380.359
365.637
366.461
379.289
367.703
367.621
380.369
379.024
366.524
367.407
363.867
351.923
352.124
363.618
364.602
352.037
351.38
364.051
352.19
352.505
364.602
364.838
351.432
351.014
364.132
352.543
352.641
364.723
363.557
350.892
348.374
364.108
352.633
352.583
363.642
364.706
348.369
350.864
363.902
352.534
352.182
364.815
364.607
350.991
351.437
363.718
352.103
351.944
364.609
363.597
351.39
352.014
348.174
336.1
336.363
348.152
349.474
336.363
336.056
348.592
336.431
336.713
349.563
350.157
336.209
337.246
348.762
336.791
336.962
350.042
347.695
337.391
338.45
348.69
336.956
336.837
347.691
350.014
338.453
337.37
348.226
336.742
336.422
350.134
349.569
337.239
336.216
347.996
336.34
336.121
349.485
348.129
336.071
336.339
332.341
319.814
319.888
332.339
334.002
319.997
319.068
332.633
319.886
319.879
334.204
336.247
319.07
317.934
332.849
319.836
319.74
336.396
337.498
317.892
316.675
332.736
319.739
319.749
337.501
336.376
316.675
317.86
332.4
319.743
319.84
336.241
334.208
317.907
319.043
332.092
319.852
319.827
334.018
332.311
319.044
319.936
315.73
303.315
303.122
315.863
316.837
303.403
302.084
315.564
303.054
302.912
316.85
316.708
302.017
301.158
315.345
302.853
302.827
316.644
315.434
301.064
300.556
315.384
302.802
302.903
315.435
316.613
300.561
301.026
315.612
302.94
303.044
316.663
316.803
301.149
302.023
315.741
303.119
303.348
316.88
315.806
302.095
303.393
298.993
286.725
286.565
299.242
300.029
286.966
285.486
298.749
286.446
286.261
300.01
299.133
285.327
284.929
298.674
286.219
286.233
299.053
298.613
284.905
285.397
298.741
286.231
286.258
298.614
299.014
285.398
284.879
298.92
286.304
286.469
299.124
299.913
284.941
285.469
299.256
286.565
286.844
300.008
299.241
285.488
286.943
282.334
269.662
269.603
282.712
282.233
269.907
269.601
282.076
269.533
269.421
282.153
281.883
269.538
269.99
282.047
269.478
269.565
281.998
282.313
270.029
270.007
282.103
269.57
269.523
282.314
281.991
270.007
270.029
282.287
269.517
269.605
281.987
282.268
269.993
269.656
282.619
269.64
269.783
282.352
282.662
269.755
269.903
265.305
252.266
252.33
265.687
265.33
252.485
252.732
265.216
252.422
252.764
265.377
265.786
252.763
252.75
265.487
252.763
252.76
265.776
265.76
252.747
252.741
265.431
252.76
252.763
265.76
265.777
252.741
252.747
265.362
252.764
252.408
265.786
265.427
252.75
252.763
265.469
252.294
252.32
265.427
265.711
252.735
252.535
247.995
236.646
236.698
248.152
248.312
236.719
236.719
248.304
236.72
236.718
248.307
248.296
236.716
236.714
248.3
236.717
236.717
248.294
248.29
236.712
236.711
248.303
236.717
236.717
248.29
248.294
236.711
236.712
248.15
236.718
236.72
248.296
248.307
236.714
236.716
247.922
236.674
236.643
248.316
248.182
236.719
236.717
511.72
499.064
498.882
511.95
511.161
499.233
498.665
510.855
498.907
509.155
510.682
501.7
498.302
489.394
134.979
477.787
121.552
485.74
198.822
472.768
177.754
511.613
122.15
473.625
194.256
486.114
174.814
472.675
511.949
507.024
499.574
502.239
510.927
489.376
498.35
513.177
499.532
500.322
511.24
511.941
498.65
499.228
494.554
480.943
480.852
494.85
494.345
481.192
480.884
510.979
480.815
511.581
494.079
485.091
480.7
471.737
118.101
410.79
110.823
468.419
171.36
454.611
152.629
450.363
111.321
407.598
168.916
468.288
151.921
454.423
495.251
508.666
481.369
485.064
494.057
471.629
480.663
495.947
481.423
482.331
494.331
494.845
480.861
481.188
476.036
461.328
460.952
476.447
476.184
461.613
461.396
503.195
460.784
463.915
476.004
466.933
461.161
451.228
111.531
464.471
144.586
449.376
146.468
431.384
131.109
414.824
144.557
464.124
146.282
449.174
131.944
431.128
476.489
463.112
461.126
466.811
475.968
451.096
461.121
477.597
461.452
462.479
476.16
476.444
461.366
461.615
455.751
440.192
439.661
456.465
456.248
440.395
439.969
453.346
439.605
436.445
455.983
445.689
439.811
428.766
180.186
433.044
476.218
425.031
127.779
406.906
118.982
457.346
483.65
432.781
128.81
424.751
120.544
406.724
455.883
436.245
439.816
445.56
455.944
428.649
439.784
456.362
440.17
440.354
456.217
456.468
439.947
440.403
434.113
417.295
417.126
434.816
434.31
417.355
416.762
431.288
417.144
414.988
434.062
423.009
416.381
406.028
440.973
413.06
277.491
402.861
115.467
390.377
109.276
428.143
279.877
412.814
117.192
402.705
111.652
390.365
434.3
414.859
417.011
422.902
434.045
406.034
416.392
434.724
417.071
417.305
434.292
434.826
416.767
417.37
412.795
398.567
397.683
411.288
412.137
398.566
397.117
411.035
397.914
397.606
411.998
400.432
396.993
387.15
378.806
397.362
140.804
394.271
103.992
380.379
140.187
410.506
141.217
397.388
105.097
394.309
141.57
380.499
412.839
397.636
397.916
400.451
412.009
387.248
397.006
411.266
397.67
398.574
412.143
411.302
397.129
398.572
395.804
382.908
382.328
394.648
395.182
382.913
381.617
395.772
382.323
381.027
395.063
385.519
381.518
373.864
130.098
380.332
233.849
378.921
134.658
368.042
95.2554
395.579
231.435
380.305
135.637
379.021
95.602
367.927
395.992
381.019
382.31
385.605
395.075
373.814
381.513
394.655
382.299
382.911
395.193
394.652
381.614
382.914
380.357
367.35
366.482
379.007
379.656
367.354
366.013
378.878
366.335
365.408
379.552
371.773
365.88
354.417
339.684
365.26
361.949
365.896
89.8794
350.945
126.09
378.09
361.936
365.217
90.2692
365.764
143.683
350.915
380.337
365.364
366.314
371.711
379.546
354.387
365.878
379.005
366.445
367.353
379.653
379.007
366.012
367.355
364.583
352.033
351.416
363.499
364.101
352.023
351.192
364.556
351.467
350.839
363.968
353.442
351.137
341.421
361.003
350.698
346.915
349.971
152.569
338.441
150.967
364.396
346.912
350.665
189.474
349.95
165.787
338.363
364.54
350.813
351.442
353.419
363.967
341.356
351.137
363.498
351.377
352.036
364.101
363.5
351.193
352.025
349.518
336.418
336.191
348.211
349.423
336.562
336.883
349.996
336.369
337.56
349.403
340.595
337.225
339.374
346.35
337.691
338.709
337.567
156.362
338.099
167.519
349.827
338.711
337.663
174.919
337.487
169.976
338.058
349.589
337.539
336.34
340.527
349.403
339.36
337.229
348.171
336.147
336.419
349.424
348.213
336.887
336.564
334.171
319.991
319.145
332.54
334.881
320.099
319.273
336.549
319.156
317.843
335.238
339.334
319.259
315.573
337.83
317.769
316.248
338.324
165.458
314.762
270.716
336.658
316.243
317.719
168.097
338.295
270.701
314.746
334.323
317.76
319.071
339.331
335.243
315.558
319.259
332.387
319.038
319.954
334.886
332.542
319.274
320.099
316.959
303.414
302.072
315.902
317.015
303.419
302.084
316.59
302.033
300.982
316.955
314.223
301.977
300.542
315.019
300.881
300.278
313.447
277.908
300.229
298.431
316.451
300.279
300.852
277.895
313.431
298.431
300.224
316.87
301.006
301.958
314.208
316.954
300.537
301.976
315.803
302.017
303.356
317.015
315.902
302.083
303.42
300.086
286.932
285.512
299.288
300.035
286.892
285.713
298.977
285.408
285.007
299.937
298.74
285.678
285.352
298.395
285.1
285.423
298.498
297.191
285.306
285.102
298.867
285.423
284.994
297.191
298.493
285.102
285.306
299.848
284.985
285.442
298.735
299.936
285.351
285.678
299.202
285.449
286.938
300.034
299.289
285.713
286.892
282.444
270.086
269.899
282.734
282.615
270.101
270.062
282.125
269.826
270.013
282.548
282.338
270.033
269.96
282.359
269.998
269.969
282.269
282.143
269.938
269.9
282.228
269.969
269.997
282.143
282.269
269.9
269.938
282.275
270.013
269.843
282.339
282.548
269.96
270.033
282.739
269.917
270.044
282.615
282.734
270.063
270.101
265.582
252.652
252.764
265.827
265.801
252.758
252.755
265.765
252.758
252.742
265.779
265.726
252.748
252.728
265.733
252.739
252.732
265.711
265.685
252.724
252.715
265.753
252.732
252.739
265.685
265.711
252.715
252.724
265.634
252.742
252.758
265.726
265.779
252.728
252.748
265.812
252.764
252.71
265.801
265.827
252.755
252.758
248.306
236.717
236.717
248.3
248.3
236.716
236.715
248.291
236.713
236.71
248.295
248.281
236.711
236.708
248.284
236.708
236.707
248.278
248.272
236.705
236.704
248.289
236.707
236.708
248.272
248.278
236.704
236.705
248.303
236.71
236.713
248.281
248.295
236.708
236.711
248.301
236.717
236.717
248.3
248.3
236.715
236.716
510.952
499.086
498.257
511.714
510.821
499.109
498.243
502.078
497.951
489.557
510.599
510.04
498.081
496.33
161.287
473.721
151.519
515.054
285.577
494.801
489.403
487.929
151.754
474.29
291.049
517.066
496.866
495.318
510.678
489.765
497.977
509.881
510.955
496.882
498.284
511.847
498.276
499.11
511.121
511.367
498.25
498.747
493.914
481.063
480.452
494.759
493.929
481.207
480.547
485.31
480.223
472.088
493.798
492.317
480.677
479.985
149.488
455.632
145.347
491.101
438.363
479.514
285.566
470.028
144.023
455.84
446.625
491.707
286.046
479.926
493.643
472.158
480.221
492.865
493.914
480.4
480.684
494.725
480.451
481.08
493.937
494.396
480.551
480.843
475.783
461.541
461.122
476.507
475.917
461.802
461.666
467.406
460.922
452.18
476.077
475.63
461.767
461.739
143.964
432.732
136.231
475.458
245.214
463.654
177.342
450.567
135.509
432.832
245.728
475.819
177.548
463.696
475.561
452.124
460.885
475.96
476.076
461.761
461.753
476.347
461.094
461.556
475.987
476.143
461.662
461.441
456.01
440.352
439.995
456.686
456.538
440.66
440.713
446.776
439.761
429.966
456.651
456.634
440.807
440.492
132.24
407.629
118.459
459.68
164.431
444.827
143.366
426.526
118.693
407.768
164.584
459.7
143.609
444.591
455.762
429.912
439.73
456.641
456.63
440.44
440.709
456.42
439.968
440.375
456.528
456.326
440.608
440.299
434.413
417.312
416.842
435.082
435.038
417.687
417.166
424.176
416.519
406.957
435.12
434.518
417.084
415.83
114.305
391.369
106.929
437.933
142.88
413.779
181.382
403.842
107.57
391.658
143.264
437.597
183.24
413.912
434.144
406.968
416.516
434.449
434.924
415.764
417.069
434.8
416.837
417.341
434.844
434.718
417.157
417.314
412.149
398.541
397.101
411.613
412.636
398.78
397.489
400.902
396.971
387.407
412.622
411.372
397.457
396.343
103.601
380.161
109.334
410.859
606.456
395.96
393.161
394.553
111.205
380.445
608.168
410.712
393.275
396.009
412.005
387.538
396.986
411.31
412.631
396.389
397.456
411.273
397.112
398.556
412.637
411.24
397.509
398.548
395.164
382.902
381.627
394.865
395.544
383.14
382.04
385.74
381.531
374.137
395.514
394.533
382.038
381.929
106.135
367.588
89.1295
394.207
392.38
381.84
387.553
378.915
90.4212
367.603
392.418
394.259
386.384
381.867
395.053
374.121
381.527
394.537
395.6
381.697
382.024
394.638
381.625
382.91
395.627
394.634
382.014
382.921
379.671
367.352
366.019
379.235
380.109
367.49
366.464
372.164
365.886
355.013
380.108
380.069
366.448
365.679
87.2726
351.646
114.993
379.902
385.451
365.604
364.296
365.562
138.371
351.62
384.027
379.907
364.319
365.845
379.566
354.965
365.885
379.726
380.084
365.934
366.433
379.006
366.018
367.356
380.074
379.024
366.443
367.332
364.105
352.02
351.18
363.633
364.585
352.016
351.322
354.032
351.126
341.98
364.57
364.698
351.386
350.997
116.603
339.181
120.848
364.619
363.3
350.954
350.57
350.654
205.233
339.101
363.32
364.857
350.571
350.963
363.971
341.901
351.127
364.952
364.558
350.936
351.393
363.501
351.181
352.023
364.566
363.467
351.327
351.999
349.408
336.552
336.821
348.116
349.449
336.343
335.917
341.164
337.152
339.321
349.529
350.116
336.063
336.673
142.509
338.064
67.0082
350.062
349.686
336.72
337.776
338.25
67.6864
338.062
349.686
350.08
337.777
336.781
349.388
339.331
337.159
350.117
349.536
336.695
336.077
348.209
336.827
336.554
349.453
348.116
335.921
336.341
334.826
320.094
319.269
332.322
333.91
319.958
319.05
339.207
319.257
315.636
334.009
335.687
318.982
317.836
314.838
266.13
335.742
336.812
317.724
317.181
338.193
266.112
314.819
336.813
335.778
317.179
317.754
335.178
315.619
319.257
335.7
334.019
317.839
318.954
332.533
319.269
320.097
333.912
332.319
318.963
319.954
317.015
303.423
302.089
315.822
316.903
303.387
302.048
314.295
301.984
300.596
316.788
316.656
301.974
301.284
276.145
300.293
298.538
316.556
316.005
301.015
300.591
313.514
298.538
300.292
316.003
316.585
300.59
301.018
316.957
300.596
301.985
316.658
316.81
301.305
301.976
315.903
302.089
303.425
316.836
315.82
302.048
303.383
300.039
286.896
285.715
299.252
299.943
286.912
285.431
298.781
285.681
285.359
299.856
299.249
285.404
285.157
297.267
285.314
285.113
298.995
298.643
285.452
285.504
298.544
285.113
285.313
298.642
298.991
285.504
285.395
299.945
285.358
285.68
299.276
299.857
285.151
285.405
299.295
285.714
286.898
299.953
299.245
285.431
286.906
282.62
270.105
270.065
282.588
282.297
269.895
269.991
282.348
270.036
269.963
282.237
282.357
270.035
270.029
282.157
269.941
269.904
282.486
282.416
270.014
269.989
282.279
269.904
269.941
282.415
282.433
269.989
270.014
282.554
269.963
270.035
282.35
282.241
270.029
270.037
282.741
270.064
270.107
282.3
282.635
269.995
269.853
265.802
252.761
252.756
265.732
265.822
252.756
252.646
265.729
252.748
252.729
265.81
265.776
252.71
252.746
265.688
252.724
252.716
265.765
265.747
252.743
252.736
265.713
252.716
252.724
265.748
265.765
252.736
252.743
265.78
252.729
252.748
265.776
265.811
252.746
252.71
265.832
252.756
252.763
265.823
265.715
252.589
252.768
248.3
236.716
236.715
248.259
248.3
236.704
236.717
248.282
236.711
236.708
248.304
248.294
236.714
236.711
248.273
236.706
236.704
248.292
248.287
236.709
236.707
248.279
236.704
236.706
248.287
248.292
236.707
236.709
248.295
236.708
236.711
248.294
248.304
236.711
236.714
248.304
236.715
236.716
248.257
248.271
236.717
236.686
511.201
498.98
498.243
512.7
511.689
499.899
499.12
510.033
498.315
497.625
511.646
511.418
499.102
499.003
482.738
497.134
504.619
511.343
511.067
498.974
498.947
509.195
503.711
497.169
511.057
511.333
498.944
498.971
511.444
497.796
498.651
511.397
511.646
498.994
499.109
511.469
498.598
498.665
511.705
512.451
499.14
499.703
493.908
481.059
480.513
495.585
494.797
482.008
481.342
493.415
480.519
480.626
494.794
494.739
481.375
481.411
502.386
480.507
513.794
494.725
494.738
481.435
481.507
493.164
512.312
480.719
494.736
494.722
481.507
481.429
494.25
480.944
480.895
494.731
494.8
481.403
481.381
494.313
480.707
480.778
494.818
495.378
481.367
481.857
475.888
461.679
461.665
477.351
476.675
462.611
462.059
476.289
461.812
462.492
476.717
476.765
462.113
462.144
517.372
462.483
487.054
476.798
476.873
462.19
462.236
476.348
486.397
462.476
476.874
476.791
462.238
462.183
476.236
462.479
461.991
476.757
476.723
462.137
462.12
476.091
461.652
461.434
476.702
477.19
462.091
462.478
456.543
440.628
440.873
457.542
456.97
441.484
441.003
457.557
440.834
441.584
457.018
457.028
441.029
440.938
450.699
441.322
415.126
457.071
457.092
440.95
440.869
457.545
415.078
441.286
457.093
457.064
440.868
440.943
456.888
441.534
440.748
457.02
457.025
440.927
441.03
456.384
440.692
440.426
457.001
457.405
441.025
441.124
435.106
417.788
417.166
435.737
435.439
418.296
418.013
435.634
417.319
417.108
435.457
435.326
418.005
417.777
424.496
416.533
462.663
435.321
435.21
417.72
417.551
435.307
461.905
416.503
435.208
435.313
417.55
417.709
434.954
417.089
417.317
435.314
435.452
417.763
417.981
434.883
417.214
417.569
435.455
435.637
418.028
418.156
412.617
398.851
397.539
412.169
411.968
399.063
399.051
411.906
397.507
396.788
411.964
411.723
399.047
398.934
500.779
396.516
394.865
411.657
411.494
398.904
398.857
411.442
394.903
396.563
411.493
411.645
398.857
398.895
412.77
396.812
397.584
411.704
411.925
398.917
399.021
411.51
397.723
398.707
411.977
412.136
399.031
399.026
395.591
383.183
382.068
395.25
395.109
383.457
383.319
394.935
382.059
382.101
395.152
395.06
383.418
383.449
393.401
382.069
381.948
395.04
395.012
383.443
383.442
394.745
381.986
381.958
395.012
395.031
383.442
383.443
395.716
381.845
382.035
395.047
395.126
383.448
383.411
394.79
382.04
383.043
395.121
395.002
383.376
383.149
380.135
367.481
366.543
379.535
379.446
367.719
367.733
380.204
366.552
366.053
379.477
379.565
367.748
367.848
380.074
365.972
364.985
379.556
379.556
367.865
367.878
380.061
365
365.982
379.556
379.563
367.879
367.896
380.095
366.045
366.524
379.57
379.504
367.885
367.761
379.135
366.519
367.416
379.471
379.251
367.718
367.472
364.606
351.974
351.288
363.784
363.857
351.883
352.063
365.071
351.334
351.058
363.867
363.964
352.091
352.252
363.971
351.018
350.84
363.999
364.009
352.311
352.446
364.999
350.842
351.06
364.009
364.04
352.446
352.3
364.6
351.084
351.333
364.005
363.857
352.239
352.092
363.545
351.298
351.957
363.804
363.603
352.071
351.885
349.402
336.259
335.775
347.945
348.109
336.061
336.281
350.17
335.89
336.452
348.148
348.319
336.33
336.502
349.952
336.516
337.476
348.361