/*--------------------------------*- C++ -*----------------------------------*\
| =========                 |                                                 |
| \\      /  F ield         | OpenFOAM: The Open Source CFD Toolbox           |
|  \\    /   O peration     | Version:  2206                                  |
|   \\  /    A nd           | Website:  www.openfoam.com                      |
|    \\/     M anipulation  |                                                 |
\*---------------------------------------------------------------------------*/
FoamFile
{
    version     2.0;
    format      ascii;
    arch        "LSB;label=32;scalar=64";
    class       volScalarField;
    location    "800";
    object      yPlus;
}
// * * * * * * * * * * * * * * * * * * * * * * * * * * * * * * * * * * * * * //

dimensions      [0 0 0 0 0 0 0];

internalField   uniform 0;

boundaryField
{
    movingWall
    {
        type            calculated;
        value           uniform 0;
    }
    front
    {
        type            calculated;
        value           uniform 0;
    }
    back
    {
        type            calculated;
        value           uniform 0;
    }
    sfera1
    {
        type            calculated;
        value           nonuniform List<scalar> 
274
(
2527.95
2428.81
9091.94
9084.77
14190
11714.4
14627.9
11596.2
8924.43
9615.66
10241.6
1794.82
9008.83
9532.91
10084.6
5281.69
5804.04
1816.19
2734.74
1273.97
1267.36
2779.46
5876.09
9580.5
5040.06
9527.84
5270.22
5033.46
2901.57
1668.1
952.144
2085.28
2089.01
758.141
1589.38
1450.26
758.329
1179.42
5261.57
2998.03
462.975
1079.58
1042.31
4099.32
976.353
3760.77
2127.35
3722.99
2073.55
1175.04
5261.72
1064.69
4866.61
5362.41
5360.5
2192.15
2125.88
1889.73
891.798
983.041
4849.27
665.089
885.195
437.264
2439.47
1485.12
4689.28
2439.91
1508.87
4694.53
4814.14
1612.06
1361.77
2213.04
808.207
807.68
2517.89
1721.42
1486.44
1626.07
2922.27
1028.76
1204.54
320.856
1605.79
1355.05
2198.42
1964.33
817.143
703.271
1088.34
4790.87
1956.41
3355.82
4146.11
2284.77
3638.07
5499.46
1029.24
1012.07
806.925
938.868
542.534
273.807
368.734
339.383
499.291
714.587
214.674
1539.89
1088.95
2494.16
2092.76
324.815
2484.49
2282.67
1208.47
431.827
1885.82
2506.45
2280.58
1206.14
463.453
1869.53
2506.72
1948.1
808.546
2804.93
701.698
1079.64
4790.14
1968.11
4068.07
2288.69
5494.61
5131.5
4137
3994.23
5026.77
4138.74
5025.31
2935.33
1679.69
957.834
1617.45
1314.44
420.328
393.476
3084.57
1063.8
828.811
528.106
1145.61
3277.26
4866.11
951.562
462.338
3958.25
1048.98
834.256
3276.32
449.546
2286.96
896.686
2153.83
484.645
977.017
1134.17
1979.02
510.93
1113.55
695.183
940.647
602.773
3644.46
3737.42
3623.37
3731.99
1463.77
941.524
1944.98
1438.61
861.29
313.943
835.445
2721.49
2818.36
1751.02
1569.51
1718.57
1670.54
2220.04
1864.29
2892.62
1227.8
1326.26
843.463
1555.51
863.474
1455.07
936.03
1482.97
1940.56
1671.33
2216.36
1873.94
1532.3
820.742
846.672
1079.34
1187.53
211.622
2659.67
2088.93
845.924
1007.73
637.47
303.671
369.164
219.563
1970.75
3362.66
4842.05
2113.24
701.252
673.614
424.993
471.963
917.88
1083.45
5138.59
3740.55
3079.11
639.945
7421.33
1838.13
821.107
2530.25
2373.59
574.608
2528.96
204.207
3353.04
2658.84
2089
1970.52
3355.03
4841.37
2107.68
465.187
922.797
1082.29
3738.5
3076.55
639.399
7417.2
3646.39
3278.87
6453.76
3611.69
3618.96
5008.02
4255.58
5374.47
5229.53
3273.61
6430.07
3989.01
3589.58
3617.37
5007.49
4256.24
5368.1
5215.82
)
;
    }
    sfera2
    {
        type            calculated;
        value           nonuniform List<scalar> 
280
(
1782.35
1837.68
4254.77
11958.3
14465.9
5447.81
9900.84
9353.97
4277.13
11790.4
14298.7
5442.67
9829.39
9340.16
1786.92
9268.28
10413.4
9792.08
5983.5
1272.6
5530.72
1827.3
9237.13
10327.8
9752.1
5969.14
1266.61
5527
1186.44
1190.53
1814.23
1804.41
1183.28
4284.98
1631.33
2199.78
1771.64
1625.64
1660.38
2200.94
1805.34
1624.58
915.887
1039.01
1228.8
835.275
2172.05
3367.32
3379.57
2242.27
4274.66
1970.22
1634.85
1938.48
3993.58
927.237
1037.81
833.989
1237.58
2176.4
3363.1
2239.93
3384.27
4279.84
1973.81
1940.81
1639.82
3992.61
1635.26
1333.2
1280.25
468.228
1632.94
1343.21
1271.65
461.603
2015.45
564.761
580.574
1851.47
1610.94
1687.24
1697.67
2616.59
2113.56
598.766
572.522
1871.01
1607.1
1682.02
1714.59
196.091
1598.47
1034.42
1790.3
993.342
545.074
421.024
1217.08
2147.66
2236.54
2526.53
885.412
743.955
1230.8
996.355
161.58
1149.14
414.116
267.175
2407.52
2820.18
3674.81
1114.25
206.126
280.006
1194.86
4243.23
2274.71
3690.69
855.838
1466.66
3896.98
945.029
1863.17
2377.64
3468.45
453.334
1502.98
2843.36
4244.33
1762.64
188.538
3081.56
1603.05
1037.54
1769.81
1709.23
992.013
547.36
1217.6
421.131
2133.77
2534.79
894.91
735.264
1238.08
996.272
187.053
1145.78
447.346
283.977
2413.25
2830.42
3679.54
1120.57
208.887
1193.49
273.742
4253.75
2312.52
3685.85
847.661
1470.61
3882.21
944.087
1863.42
2378.82
3460.39
457.043
1486.4
2830.01
6535.62
4245.01
1738.41
1186.13
559.302
4282.95
4932.9
3986.08
1510.63
5094.39
5699.23
6564.83
5032
5376.23
5260.42
5083.72
554.543
4943.15
3999.1
1513.46
5101.28
5704.2
5031.64
5373.47
5261.32
5068.16
996.013
1134.43
2385.91
965.295
1704.68
1069.75
1095.74
2343.69
1038.22
2619.29
2142.49
1995.04
3764.72
3076.77
2075.38
495.69
1810.66
1004.16
2347.74
2060.65
727.371
898.161
2683.87
711.915
1093.79
410.939
789.586
581.966
639.629
800.8
509.146
1252.45
506.163
2434.23
2558.87
995.865
4164.56
2277.69
379.803
3714.78
4789.46
4051.63
3365.98
4119.98
3409.03
5172.05
2161.53
1974.06
3778.63
2079.83
2236.27
496.384
1806.01
2673.34
1022.41
2340.64
2061.83
703.76
899.076
709.29
1083.94
448.779
782.222
641.675
621.061
806.201
504.433
1265.12
501.225
2434.76
984.889
2580.32
4186.98
2263.09
428.391
3693.55
4112.84
4047.18
3364.74
4791.23
3404.28
5172.26
)
;
    }
}


// ************************************************************************* //
