/*--------------------------------*- C++ -*----------------------------------*\
| =========                 |                                                 |
| \\      /  F ield         | OpenFOAM: The Open Source CFD Toolbox           |
|  \\    /   O peration     | Version:  2206                                  |
|   \\  /    A nd           | Website:  www.openfoam.com                      |
|    \\/     M anipulation  |                                                 |
\*---------------------------------------------------------------------------*/
FoamFile
{
    version     2.0;
    format      ascii;
    arch        "LSB;label=32;scalar=64";
    class       volScalarField;
    location    "800";
    object      yPlus;
}
// * * * * * * * * * * * * * * * * * * * * * * * * * * * * * * * * * * * * * //

dimensions      [0 0 0 0 0 0 0];

internalField   uniform 0;

boundaryField
{
    movingWall
    {
        type            calculated;
        value           uniform 0;
    }
    front
    {
        type            calculated;
        value           uniform 0;
    }
    back
    {
        type            calculated;
        value           uniform 0;
    }
    sfera1
    {
        type            calculated;
        value           nonuniform List<scalar> 
274
(
2527.96
2428.69
9091.95
9084.78
14190.1
11714.4
14627.9
11596.2
8924.46
9615.69
10241.6
1794.73
9008.81
9532.91
10084.6
5281.7
5804.04
1816.25
2734.77
1273.97
1267.36
2779.4
5876.1
9580.51
5040.07
9527.85
5270.22
5033.47
2901.56
1668.08
952.146
2085.28
2089.01
758.144
1589.39
1450.28
758.368
1179.42
5261.58
2998.04
462.976
1079.58
1042.33
4099.33
976.367
3760.77
2127.35
3722.99
2073.56
1175.08
5261.71
1064.65
4866.61
5362.41
5360.51
2192.15
2125.87
1889.72
891.743
982.978
4849.29
665.092
885.198
437.267
2439.47
1485.12
4689.29
2439.91
1508.87
4694.54
4814.12
1612.07
1361.71
2212.97
808.203
807.675
2517.87
1721.42
1486.47
1626.06
2922.28
1028.78
1204.56
320.85
1605.79
1354.98
2198.43
1964.3
817.132
703.28
1088.31
4790.89
1956.45
3355.85
4146.15
2284.83
3638.09
5499.48
1029.24
1012.07
806.918
938.879
542.518
273.803
368.73
339.387
499.301
714.597
214.703
1539.89
1088.95
2494.17
2092.76
324.829
2484.5
2282.68
1208.47
431.825
1885.83
2506.45
2280.58
1206.14
463.452
1869.54
2506.72
1948.1
808.584
2804.92
701.702
1079.67
4790.13
1968.08
4068.03
2288.6
5494.6
5131.49
4137
3994.23
5026.77
4138.74
5025.32
2935.32
1679.63
957.837
1617.45
1314.44
420.303
393.568
3084.59
1063.83
828.864
528.107
1145.61
3277.26
4866.12
951.562
462.319
3958.26
1048.98
834.247
3276.32
449.588
2286.93
896.58
2153.82
484.734
976.952
1134.07
1979.01
510.837
1113.59
695.186
940.65
602.775
3644.46
3737.42
3623.37
3731.99
1463.71
941.499
1944.98
1438.79
861.277
313.964
835.434
2721.45
2818.28
1751.02
1569.51
1718.56
1670.45
2219.98
1864.28
2892.61
1227.79
1326.25
843.414
1555.4
863.404
1455.07
936.064
1482.89
1940.54
1671.32
2216.36
1873.89
1532.3
820.801
846.682
1079.34
1187.54
211.589
2659.7
2088.97
845.924
1007.74
637.471
303.67
369.163
219.559
1970.76
3362.67
4842.06
2113.26
701.243
673.616
424.988
471.937
917.893
1083.48
5138.6
3740.56
3079.13
639.969
7421.35
1838.13
821.113
2530.26
2373.6
574.595
2528.98
204.217
3353.02
2658.83
2088.99
1970.52
3355.03
4841.37
2107.68
465.221
922.788
1082.28
3738.5
3076.55
639.384
7417.19
3646.37
3278.86
6453.76
3611.69
3618.96
5008.02
4255.58
5374.47
5229.53
3273.61
6430.08
3989.01
3589.58
3617.37
5007.49
4256.25
5368.11
5215.83
)
;
    }
    sfera2
    {
        type            calculated;
        value           nonuniform List<scalar> 
280
(
1782.5
1837.85
4254.83
11958.3
14465.9
5447.82
9900.86
9353.98
4277.19
11790.5
14298.7
5442.68
9829.4
9340.17
1786.94
9268.38
10413.4
9792.14
5983.51
1272.6
5530.72
1827.34
9237.25
10327.8
9752.17
5969.15
1266.61
5527.01
1186.72
1190.78
1814.41
1804.47
1183.14
4284.98
1631.41
2199.84
1771.78
1625.69
1660.43
2200.99
1805.4
1624.62
915.898
1039.01
1228.81
835.283
2172.02
3367.3
3379.55
2242.23
4274.67
1970.22
1634.85
1938.48
3993.57
927.248
1037.81
833.997
1237.59
2176.36
3363.08
2239.89
3384.25
4279.85
1973.81
1940.82
1639.82
3992.6
1635.42
1333.57
1280.52
468.426
1633.14
1343.53
1271.86
461.758
2015.54
564.806
580.607
1851.54
1610.96
1687.26
1697.7
2616.87
2113.66
598.806
572.563
1871.04
1607.13
1682.05
1714.62
196.009
1598.46
1034.37
1790
993.286
545.089
421.029
1216.97
2147.45
2236.49
2526.47
885.423
743.981
1230.82
996.367
161.591
1149.15
414.134
267.18
2407.5
2820.17
3674.8
1114.25
206.171
279.969
1194.82
4243.24
2274.72
3690.7
855.852
1466.67
3896.98
945.03
1863.17
2377.64
3468.46
453.336
1502.98
2843.36
4244.32
1762.64
188.446
3081.56
1603.11
1037.52
1769.66
1709.27
992.025
547.393
1217.53
421.186
2133.71
2534.84
894.923
735.292
1238.09
996.283
187.066
1145.78
447.366
283.985
2413.22
2830.38
3679.52
1120.53
208.935
1193.43
273.763
4253.75
2312.53
3685.85
847.675
1470.62
3882.21
944.088
1863.42
2378.82
3460.4
457.045
1486.41
2830.01
6535.62
4245
1738.41
1186.06
559.305
4282.95
4932.91
3986.09
1510.53
5094.39
5699.24
6564.83
5032
5376.24
5260.42
5083.72
554.569
4943.15
3999.11
1513.37
5101.27
5704.21
5031.64
5373.47
5261.32
5068.15
996.041
1134.49
2385.99
965.326
1704.56
1069.79
1095.78
2343.78
1038.25
2619.54
2142.52
1995.06
3764.74
3076.78
2075.32
495.697
1810.34
1004.21
2347.88
2060.58
727.425
898.143
2683.91
711.933
1093.8
410.938
789.613
582
639.637
800.778
509.111
1252.43
506.124
2434.24
2558.93
995.877
4164.59
2277.71
379.765
3714.77
4789.45
4051.62
3365.98
4119.98
3409.03
5172.04
2161.54
1974.06
3778.63
2079.8
2236.26
496.448
1805.75
2673.39
1022.47
2340.72
2061.75
703.852
899.082
709.31
1083.96
448.788
782.243
641.697
621.064
806.137
504.431
1265.05
501.228
2434.77
984.899
2580.36
4187
2263.11
428.359
3693.55
4112.83
4047.17
3364.74
4791.21
3404.28
5172.25
)
;
    }
}


// ************************************************************************* //
