/*--------------------------------*- C++ -*----------------------------------*\
| =========                 |                                                 |
| \\      /  F ield         | OpenFOAM: The Open Source CFD Toolbox           |
|  \\    /   O peration     | Version:  2206                                  |
|   \\  /    A nd           | Website:  www.openfoam.com                      |
|    \\/     M anipulation  |                                                 |
\*---------------------------------------------------------------------------*/
FoamFile
{
    version     2.0;
    format      ascii;
    arch        "LSB;label=32;scalar=64";
    class       volScalarField;
    location    "400";
    object      k;
}
// * * * * * * * * * * * * * * * * * * * * * * * * * * * * * * * * * * * * * //

dimensions      [0 2 -2 0 0 0 0];

internalField   nonuniform List<scalar> 
187974
(
0.319667
0.311374
0.30906
0.307338
0.307362
0.309205
0.310983
0.321408
0.338177
0.3299
0.328133
0.326428
0.326459
0.328268
0.329409
0.340121
0.349313
0.341629
0.340518
0.338912
0.338947
0.3406
0.341034
0.351369
0.3615
0.354276
0.355273
0.354103
0.354132
0.355072
0.353367
0.363736
0.377469
0.369224
0.370446
0.370901
0.370934
0.370417
0.368289
0.379871
0.395293
0.386844
0.387587
0.389571
0.389626
0.387793
0.38615
0.39777
0.414692
0.406989
0.408124
0.409654
0.409739
0.408296
0.406149
0.417027
0.436664
0.430016
0.431216
0.431332
0.431457
0.431391
0.429077
0.439387
0.461075
0.457282
0.457578
0.455592
0.455702
0.457721
0.456182
0.464827
0.48857
0.486939
0.486793
0.484281
0.484304
0.487008
0.485752
0.492899
0.526065
0.520804
0.520929
0.52083
0.520805
0.520985
0.519811
0.530097
0.565159
0.562987
0.562927
0.563225
0.563206
0.562934
0.561029
0.570618
0.615585
0.612402
0.612442
0.612426
0.612424
0.612465
0.610321
0.62169
0.674434
0.670685
0.670822
0.671026
0.671053
0.670986
0.668492
0.681093
0.745169
0.741034
0.741332
0.741471
0.741516
0.741464
0.73921
0.751044
0.831436
0.827122
0.827332
0.827398
0.827408
0.827386
0.827587
0.831123
0.934227
0.934873
0.934907
0.934877
0.934875
0.9349
0.93501
0.936214
1.07348
1.07275
1.07287
1.07291
1.07291
1.07287
1.07276
1.07319
1.25494
1.25422
1.25428
1.25429
1.25429
1.25428
1.25421
1.25501
1.49598
1.4954
1.49542
1.49544
1.49544
1.49542
1.49539
1.496
0.314931
0.279658
0.281925
0.283381
0.283355
0.281771
0.27952
0.315215
0.336839
0.300412
0.302527
0.304001
0.303971
0.302361
0.300264
0.337831
0.378881
0.298493
0.302303
0.306568
0.30715
0.304844
0.300266
0.292164
0.400217
0.319879
0.320816
0.324554
0.325085
0.322883
0.320277
0.320234
0.419682
0.343446
0.341039
0.342706
0.343225
0.341814
0.345004
0.341841
0.434035
0.365131
0.367074
0.362723
0.362558
0.364821
0.366686
0.363038
0.450553
0.388813
0.390358
0.384417
0.383832
0.387401
0.390139
0.386629
0.470238
0.4155
0.415925
0.410842
0.410501
0.413023
0.416389
0.413292
0.490139
0.444007
0.443337
0.441303
0.441377
0.440899
0.444148
0.441377
0.512861
0.474609
0.47566
0.476491
0.476466
0.475373
0.475208
0.472814
0.53758
0.511735
0.511355
0.511343
0.511338
0.51131
0.51127
0.510538
0.563944
0.55218
0.551876
0.551836
0.551857
0.551809
0.552087
0.550743
0.598621
0.599415
0.599256
0.599168
0.599152
0.599165
0.59938
0.597734
0.655178
0.654998
0.655067
0.655276
0.655326
0.655278
0.655048
0.652922
0.721795
0.721933
0.722391
0.723012
0.723286
0.723202
0.722719
0.719656
0.802442
0.80318
0.803984
0.804232
0.804241
0.804165
0.80391
0.800905
0.902795
0.903832
0.904491
0.904582
0.904557
0.904504
0.904214
0.901421
1.03072
1.03178
1.03222
1.03238
1.03237
1.03228
1.03199
1.03119
1.19886
1.19934
1.19899
1.19902
1.19903
1.19893
1.19975
1.19847
1.49827
1.49757
1.4972
1.49721
1.49721
1.49721
1.49774
1.49808
0.332844
0.300475
0.31969
0.323459
0.323397
0.319671
0.30042
0.332947
0.356447
0.303583
0.302282
0.302005
0.30206
0.302395
0.304858
0.35675
0.427081
0.318993
0.320195
0.320275
0.320302
0.320235
0.320141
0.297339
0.430859
0.332218
0.333662
0.333698
0.333673
0.333666
0.333685
0.320779
0.443091
0.34958
0.351086
0.351161
0.351141
0.351118
0.351089
0.338171
0.458006
0.368741
0.370302
0.370393
0.370379
0.370342
0.370303
0.355913
0.475273
0.389987
0.391618
0.391715
0.391707
0.391658
0.391616
0.376267
0.488766
0.413669
0.415381
0.41549
0.415483
0.415425
0.415379
0.409345
0.508722
0.440305
0.442003
0.44212
0.442106
0.442046
0.442003
0.444745
0.527155
0.473169
0.472105
0.472164
0.472131
0.472083
0.47219
0.476476
0.539862
0.507218
0.506702
0.506316
0.506236
0.506258
0.506909
0.511856
0.569793
0.546879
0.546387
0.545918
0.545703
0.545889
0.546549
0.552374
0.603946
0.593351
0.593115
0.592247
0.592066
0.592259
0.593242
0.599584
0.655552
0.647802
0.647458
0.64734
0.647213
0.647286
0.647575
0.655186
0.72177
0.713179
0.713563
0.714519
0.71499
0.714857
0.713662
0.721767
0.802476
0.792296
0.793696
0.794494
0.79444
0.794107
0.793418
0.802537
0.902788
0.890366
0.891767
0.892722
0.892606
0.892211
0.891135
0.902603
1.03166
1.01491
1.01571
1.01435
1.01345
1.0148
1.01482
1.03111
1.19891
1.17522
1.17228
1.17073
1.17073
1.17072
1.17436
1.19749
1.49718
1.42211
1.42207
1.42207
1.42207
1.42207
1.42205
1.49716
0.335811
0.31062
0.379311
0.435181
0.435127
0.379062
0.311589
0.334465
0.357446
0.303646
0.377998
0.429082
0.437605
0.434177
0.353997
0.358052
0.422643
0.320303
0.393501
0.457292
0.466261
0.454404
0.359082
0.30111
0.42708
0.333993
0.371861
0.476281
0.476697
0.475829
0.364288
0.324212
0.439064
0.351348
0.372735
0.502711
0.504489
0.502083
0.364399
0.342915
0.452742
0.370634
0.380209
0.53323
0.535828
0.53188
0.37287
0.363233
0.467943
0.392048
0.395903
0.562962
0.578277
0.564023
0.391133
0.390594
0.484725
0.41596
0.417873
0.593864
0.71829
0.594755
0.414964
0.415344
0.503165
0.442832
0.438349
0.617112
0.625439
0.617456
0.44017
0.44311
0.523608
0.473241
0.46951
0.598007
2.02437
0.598021
0.470807
0.474822
0.547068
0.507889
0.504335
0.553351
11.7854
0.552283
0.504627
0.511139
0.576784
0.547678
0.544451
0.543872
0.311473
0.543512
0.544568
0.552616
0.612011
0.593643
0.590063
0.588292
0.593011
0.58818
0.590383
0.599759
0.654655
0.647931
0.64392
0.642298
0.645262
0.642262
0.644197
0.655227
0.721722
0.712969
0.708582
0.70828
0.709748
0.708361
0.708832
0.721684
0.802295
0.791613
0.785805
0.789211
0.789593
0.789084
0.787194
0.802168
0.902298
0.888328
0.889679
0.8893
0.88795
0.890825
0.890505
0.90174
1.02907
1.01068
1.01208
1.01056
1.01055
1.01056
1.01236
1.02888
1.19604
1.17105
1.1706
1.17059
1.17059
1.17059
1.1706
1.19543
1.49677
1.42208
1.42207
1.42207
1.42207
1.42207
1.42207
1.49677
0.333543
0.312141
0.380424
0.443458
0.443586
0.380695
0.308496
0.337279
0.355525
0.303868
0.372276
0.449338
0.627715
0.43466
0.352136
0.354938
0.42331
0.320901
0.386983
0.480788
0.721449
0.455208
0.356541
0.308798
0.427718
0.333877
0.361907
0.491613
1.19371
0.480613
0.359084
0.331273
0.440032
0.351302
0.363937
0.52118
1.52862
0.508201
0.361271
0.349065
0.45402
0.370556
0.374807
0.553991
1.80937
0.538469
0.372776
0.368449
0.469452
0.391948
0.393943
0.589842
1.96795
0.570174
0.392537
0.39009
0.486353
0.415853
0.41735
0.626473
2.00623
0.601041
0.41646
0.414475
0.504802
0.44274
0.441749
0.642521
1.8379
0.628071
0.441624
0.442194
0.525139
0.473178
0.472045
0.623034
2.58282
0.603426
0.471828
0.47391
0.548316
0.507855
0.506423
0.578158
10.7642
0.557297
0.506184
0.510289
0.576112
0.547683
0.545814
0.580697
2.05659
0.570726
0.54558
0.552091
0.609517
0.593881
0.591466
0.622716
28.0706
0.614426
0.591252
0.599596
0.654523
0.648084
0.644745
0.671749
0.662793
0.644623
0.655209
0.721592
0.712701
0.708139
0.707454
0.733332
0.707094
0.708152
0.721423
0.802172
0.791106
0.785475
0.785259
0.785146
0.785288
0.785507
0.801896
0.902036
0.888022
0.888006
0.887929
0.887897
0.887947
0.888028
0.901674
1.02897
1.01063
1.01057
1.01054
1.01053
1.01055
1.01057
1.02849
1.19591
1.17065
1.17059
1.17058
1.17058
1.17059
1.17059
1.1953
1.49677
1.42208
1.42207
1.42207
1.42207
1.42207
1.42207
1.49677
0.332028
0.300516
0.322508
0.326969
0.32613
0.320697
0.298234
0.334681
0.356019
0.303948
0.365405
0.383267
0.383923
0.382139
0.353783
0.352003
0.430308
0.321499
0.372526
0.391545
0.392172
0.389902
0.357922
0.305811
0.425213
0.333494
0.371319
0.436895
0.440398
0.435038
0.367396
0.329625
0.439976
0.351076
0.371238
0.4548
0.458422
0.450858
0.367014
0.351188
0.454648
0.370428
0.378816
0.475653
0.480698
0.471348
0.374539
0.370919
0.471115
0.391774
0.395131
0.499079
0.504943
0.496076
0.392067
0.392547
0.489819
0.415656
0.417266
0.528637
0.526961
0.525222
0.416014
0.416944
0.516152
0.442227
0.439451
0.618474
0.61023
0.615109
0.440688
0.444041
0.526115
0.472521
0.470714
0.595065
0.509359
0.592761
0.470494
0.475202
0.555361
0.507228
0.50504
0.552868
0.21396
0.553107
0.505139
0.510768
0.571933
0.547271
0.54439
0.542309
0.543002
0.542239
0.544504
0.552706
0.603878
0.593544
0.590035
0.588215
0.588222
0.588045
0.59007
0.59961
0.655643
0.647851
0.644116
0.642287
0.642204
0.642186
0.64403
0.655152
0.721859
0.71284
0.708834
0.708766
0.708631
0.708609
0.709199
0.721529
0.802579
0.791827
0.787493
0.790127
0.789801
0.789417
0.787232
0.80244
0.903266
0.889187
0.890607
0.890657
0.8886
0.891626
0.890569
0.90299
1.02953
1.01277
1.01093
1.01057
1.01056
1.01057
1.01201
1.02935
1.19629
1.17216
1.17109
1.17059
1.17059
1.17059
1.17302
1.19611
1.49772
1.42275
1.42207
1.42207
1.42207
1.42207
1.42204
1.49774
0.32027
0.283052
0.286635
0.288083
0.288595
0.286788
0.278406
0.305548
0.347232
0.304701
0.307565
0.309099
0.309447
0.308368
0.298797
0.332717
0.419612
0.320388
0.319754
0.319598
0.319494
0.319782
0.320653
0.303006
0.41457
0.335929
0.335931
0.335738
0.335652
0.335683
0.33553
0.325968
0.434444
0.353415
0.35313
0.353237
0.353224
0.353251
0.353075
0.343389
0.450864
0.372715
0.372595
0.372672
0.372656
0.372693
0.372504
0.36195
0.45879
0.394272
0.394181
0.394257
0.394244
0.394298
0.394103
0.384699
0.474897
0.418403
0.418281
0.41835
0.418356
0.418429
0.418257
0.413294
0.487739
0.445621
0.445387
0.445451
0.445428
0.445541
0.445401
0.441454
0.508114
0.476295
0.476077
0.476122
0.476077
0.47618
0.476061
0.475272
0.529688
0.511484
0.511175
0.511093
0.511032
0.511135
0.511203
0.510702
0.558528
0.552155
0.551758
0.551558
0.55148
0.551702
0.551963
0.552654
0.599821
0.599545
0.599191
0.599011
0.598893
0.599181
0.599238
0.59953
0.655003
0.6551
0.654942
0.655236
0.655139
0.655248
0.654829
0.655075
0.721722
0.722377
0.723006
0.723727
0.723635
0.723599
0.722409
0.721814
0.803129
0.80418
0.804301
0.804963
0.80494
0.804784
0.803992
0.803089
0.903841
0.904711
0.904959
0.90569
0.905742
0.905602
0.904606
0.903613
1.0312
1.03247
1.0333
1.03331
1.03347
1.03351
1.03263
1.03081
1.19823
1.20071
1.20095
1.20029
1.20038
1.20031
1.20105
1.19952
1.49897
1.49886
1.49856
1.49858
1.49858
1.49855
1.49893
1.49862
0.309371
0.301986
0.290263
0.288947
0.288961
0.29051
0.308499
0.321721
0.326501
0.318859
0.309961
0.309563
0.309599
0.309818
0.324852
0.338974
0.340417
0.333456
0.322979
0.322851
0.322881
0.322911
0.333882
0.348669
0.357552
0.343074
0.339468
0.339542
0.339569
0.339547
0.344943
0.362737
0.378887
0.363555
0.357398
0.35747
0.357493
0.357457
0.359083
0.379285
0.397459
0.37786
0.377384
0.377423
0.377457
0.377407
0.379545
0.397387
0.414591
0.401512
0.399611
0.399623
0.399676
0.399672
0.401968
0.416832
0.436849
0.426164
0.424496
0.424508
0.424572
0.424605
0.425742
0.436904
0.46089
0.453613
0.452595
0.452613
0.45265
0.452702
0.451327
0.461391
0.489771
0.482938
0.484536
0.484564
0.484577
0.484584
0.48357
0.492162
0.525587
0.519758
0.521052
0.521078
0.52108
0.521045
0.519737
0.524713
0.568751
0.561625
0.563185
0.563211
0.563214
0.563173
0.561697
0.568445
0.618805
0.610586
0.612428
0.61245
0.612453
0.612412
0.610618
0.618251
0.677743
0.668797
0.67102
0.671085
0.671092
0.671001
0.66884
0.677108
0.747248
0.739506
0.741438
0.741515
0.741514
0.741411
0.739552
0.746472
0.827585
0.827768
0.827359
0.827409
0.827409
0.82733
0.827802
0.826536
0.936457
0.934673
0.934822
0.934861
0.934863
0.934799
0.93479
0.935309
1.0743
1.07268
1.07283
1.07289
1.0729
1.07276
1.07264
1.07313
1.25565
1.25426
1.25428
1.2543
1.2543
1.25412
1.25382
1.2547
1.49578
1.49537
1.49541
1.49543
1.49543
1.4954
1.49534
1.49594
0.33366
0.345078
0.346556
0.332807
0.368113
0.345661
0.367316
0.333687
0.346573
0.346621
0.370238
0.432838
0.370022
0.444724
0.333669
0.346639
0.346618
0.434324
0.437324
0.446208
0.450776
0.333671
0.346619
0.346611
0.437206
0.433674
0.450563
0.445405
0.333674
0.346601
0.346588
0.432176
0.370101
0.443376
0.369372
0.332662
0.346579
0.345574
0.368095
0.332081
0.367301
0.344964
0.351066
0.363773
0.365289
0.350194
0.367745
0.364635
0.371952
0.351138
0.365313
0.365374
0.370438
0.450218
0.374738
0.466457
0.351138
0.365401
0.365384
0.450938
0.455964
0.468817
0.473141
0.351129
0.365386
0.365367
0.455709
0.4499
0.473026
0.464934
0.351101
0.365352
0.365332
0.447673
0.369778
0.462015
0.373845
0.350094
0.365314
0.364351
0.367724
0.349461
0.371904
0.363929
0.370276
0.384463
0.386043
0.370565
0.374732
0.386441
0.386812
0.370364
0.386074
0.386138
0.377504
0.47197
0.388616
0.487474
0.370377
0.386169
0.386159
0.474754
0.480049
0.490698
0.500895
0.370358
0.386161
0.386131
0.479908
0.470729
0.500823
0.489544
0.370321
0.386114
0.386094
0.467524
0.376551
0.485686
0.388344
0.36935
0.386073
0.385145
0.374673
0.368922
0.386713
0.384795
0.391585
0.407506
0.409153
0.392027
0.392015
0.409731
0.409353
0.391683
0.409189
0.40926
0.393681
0.492629
0.410551
0.510381
0.391705
0.409295
0.409286
0.496339
0.507327
0.515066
0.526336
0.391676
0.409289
0.409252
0.507252
0.496214
0.526419
0.515038
0.391639
0.409232
0.409211
0.492375
0.393301
0.510357
0.410161
0.390685
0.409187
0.408306
0.391786
0.390965
0.409113
0.408617
0.415344
0.433397
0.435015
0.415968
0.415614
0.435718
0.43518
0.415454
0.435055
0.435131
0.416678
0.51656
0.435571
0.535102
0.415481
0.435171
0.435157
0.521363
0.532218
0.539737
0.547162
0.415445
0.43516
0.43512
0.532341
0.521289
0.547521
0.538954
0.415404
0.435099
0.43508
0.51643
0.416305
0.534584
0.435547
0.414481
0.435053
0.434239
0.415354
0.414967
0.435202
0.435703
0.441964
0.463737
0.464197
0.442834
0.439957
0.465244
0.466703
0.442078
0.464197
0.464255
0.438301
0.613627
0.465492
0.590686
0.442103
0.464297
0.464267
0.615838
0.590114
0.594252
0.473752
0.442067
0.464271
0.464238
0.592191
0.615575
0.474924
0.59374
0.442029
0.464218
0.46423
0.61281
0.438367
0.589796
0.465523
0.44116
0.464243
0.46429
0.439972
0.442853
0.466838
0.465269
0.472145
0.498072
0.497727
0.473205
0.470807
0.498717
0.50004
0.472121
0.497599
0.497318
0.469554
0.586903
0.499759
0.550088
0.472126
0.497345
0.497269
0.590597
0.455203
0.553769
0.804304
0.472101
0.497275
0.497274
0.45503
0.590082
0.765884
0.553327
0.472137
0.497279
0.497646
0.586052
0.469577
0.549678
0.499768
0.472793
0.497788
0.498042
0.470828
0.473233
0.500037
0.498755
0.506853
0.536376
0.536076
0.507814
0.504575
0.536994
0.539215
0.506304
0.535978
0.535528
0.504346
0.545748
0.539301
0.540399
0.506229
0.535442
0.535235
0.549191
1.01908
0.540594
0.229114
0.506233
0.535245
0.535336
0.977001
0.548787
0.259606
0.540615
0.506746
0.535456
0.536004
0.545385
0.504356
0.540436
0.539308
0.507167
0.536129
0.536323
0.504572
0.507855
0.5392
0.537039
0.546495
0.581013
0.580749
0.547322
0.544453
0.581246
0.583975
0.545988
0.580642
0.579909
0.544399
0.542716
0.583906
0.584751
0.545691
0.579828
0.579568
0.543006
0.473438
0.584897
0.587502
0.545805
0.579591
0.579707
0.480267
0.543043
0.587503
0.584963
0.546415
0.579823
0.580666
0.542765
0.544394
0.584812
0.583898
0.546819
0.580814
0.58095
0.544435
0.547372
0.583946
0.581306
0.593172
0.633238
0.633006
0.593516
0.590198
0.633327
0.636675
0.59235
0.63298
0.632732
0.590044
0.587763
0.636587
0.638447
0.592015
0.632674
0.632475
0.587908
0.59042
0.638528
0.640166
0.592121
0.632499
0.632517
0.59042
0.587975
0.640167
0.638632
0.593138
0.632639
0.633012
0.587823
0.590036
0.638494
0.636578
0.593284
0.633089
0.633165
0.590166
0.59358
0.636635
0.633403
0.647494
0.695759
0.695861
0.647786
0.643979
0.695439
0.699906
0.647369
0.695959
0.696216
0.643687
0.642023
0.69998
0.703518
0.647188
0.696443
0.69687
0.642092
0.643873
0.70353
0.705229
0.647208
0.696879
0.696784
0.643873
0.642199
0.705228
0.703689
0.647492
0.696763
0.696151
0.642071
0.64369
0.703586
0.700072
0.647718
0.696008
0.695699
0.643933
0.64788
0.700026
0.695683
0.713419
0.771211
0.772155
0.712771
0.708967
0.770485
0.776348
0.714191
0.772424
0.772827
0.708917
0.708104
0.776453
0.778542
0.71502
0.773016
0.772918
0.708142
0.709646
0.77861
0.779229
0.714937
0.773043
0.772764
0.709646
0.708292
0.779197
0.778819
0.713963
0.77268
0.77247
0.708241
0.709098
0.7786
0.776437
0.713082
0.772175
0.771049
0.708792
0.71301
0.776302
0.77053
0.793421
0.863596
0.864455
0.791817
0.786885
0.861688
0.870239
0.794288
0.865087
0.865937
0.786745
0.789211
0.871095
0.872542
0.79435
0.866103
0.865854
0.789262
0.789848
0.872543
0.868665
0.794219
0.865868
0.865873
0.789842
0.789481
0.868665
0.872709
0.793714
0.865679
0.864944
0.78927
0.787278
0.87246
0.870198
0.792113
0.864462
0.862863
0.787016
0.791821
0.870221
0.86183
0.89128
0.98092
0.981319
0.888563
0.891255
0.978778
0.980909
0.892587
0.981771
0.98247
0.891528
0.892576
0.981244
0.977382
0.892572
0.98198
0.981227
0.891563
0.889018
0.976966
0.976955
0.892344
0.981195
0.981642
0.889016
0.891607
0.976955
0.976974
0.891479
0.981732
0.981216
0.891876
0.890757
0.977361
0.980331
0.889535
0.981028
0.979998
0.890473
0.888886
0.979722
0.978807
1.01526
1.1312
1.13057
1.01198
1.01471
1.12895
1.12649
1.01578
1.12965
1.12625
1.0142
1.01057
1.12613
1.12612
1.01347
1.12625
1.12625
1.01056
1.01056
1.12611
1.12611
1.01399
1.12625
1.12625
1.01056
1.01056
1.12611
1.12611
1.01472
1.12625
1.12978
1.01057
1.01378
1.12612
1.12613
1.01398
1.13093
1.13068
1.01392
1.01178
1.12647
1.12846
1.174
1.30149
1.30087
1.17227
1.17058
1.30058
1.30057
1.17072
1.30058
1.30058
1.1706
1.17059
1.30057
1.30057
1.17073
1.30058
1.30058
1.17059
1.17059
1.30057
1.30057
1.17073
1.30058
1.30058
1.17059
1.17059
1.30057
1.30057
1.17238
1.30058
1.30058
1.17059
1.1706
1.30057
1.30057
1.17475
1.30116
1.30153
1.17054
1.17196
1.30058
1.30061
0.365556
0.346823
0.364843
0.333784
0.359233
0.346699
0.359884
0.476684
0.372449
0.496159
0.362141
0.480797
0.362345
0.500586
0.476722
0.495907
0.497473
0.491779
0.887873
0.513398
1.04527
0.475662
0.497027
0.49517
0.872427
0.491629
1.03432
0.513859
0.369578
0.49529
0.369273
0.480362
0.361629
0.500671
0.362307
0.332189
0.363942
0.345364
0.359361
0.333803
0.359994
0.34671
0.365442
0.365625
0.370432
0.351219
0.361208
0.365483
0.368725
0.503351
0.377498
0.525885
0.363398
0.507771
0.370617
0.530147
0.504766
0.525026
0.527545
0.521137
1.11096
0.545615
1.35626
0.502152
0.527587
0.524353
1.10362
0.521597
1.36564
0.546003
0.369799
0.524278
0.374365
0.507838
0.36351
0.530164
0.370637
0.349866
0.369801
0.364068
0.361287
0.351228
0.36877
0.365488
0.373485
0.386475
0.386161
0.370489
0.372528
0.386324
0.386759
0.533041
0.390893
0.555961
0.374303
0.537934
0.388174
0.561414
0.535912
0.556049
0.565147
0.554272
1.45006
0.581141
1.75422
0.532171
0.564109
0.556115
1.46537
0.554637
1.78265
0.581428
0.377171
0.555495
0.389247
0.537938
0.374314
0.56138
0.388171
0.369026
0.385881
0.385134
0.372562
0.370492
0.386778
0.386324
0.391363
0.409724
0.408788
0.391894
0.392211
0.409568
0.410152
0.562376
0.411907
0.584771
0.393502
0.569326
0.410738
0.592183
0.579778
0.586454
0.672848
0.590403
1.85621
0.617955
2.15213
0.564529
0.662675
0.588214
1.88559
0.590665
2.16873
0.618132
0.394218
0.587489
0.410915
0.56928
0.393498
0.592104
0.410762
0.391867
0.408626
0.409539
0.392228
0.391895
0.410144
0.409567
0.415068
0.435806
0.435493
0.415806
0.416477
0.435663
0.436319
0.592202
0.435503
0.612517
0.417138
0.59964
0.43678
0.619752
0.728936
0.615213
1.03935
0.627092
2.24481
0.6525
2.47957
0.596056
1.01309
0.617823
2.25255
0.62724
2.45853
0.652541
0.416851
0.615988
0.435606
0.599549
0.417168
0.619606
0.436785
0.415871
0.435288
0.435798
0.416473
0.415804
0.436314
0.435659
0.440041
0.46527
0.466873
0.442697
0.441603
0.465163
0.467821
0.61625
0.465446
0.60027
0.441727
0.628566
0.468016
0.608417
0.634301
0.602669
1.77539
0.641828
2.84974
0.626266
2.36266
0.6181
1.66391
0.603815
2.82913
0.641641
2.34412
0.626163
0.438293
0.60275
0.465425
0.628431
0.441729
0.608358
0.468018
0.442823
0.46694
0.46526
0.441605
0.442692
0.467821
0.465157
0.470741
0.498782
0.500024
0.473145
0.471811
0.498721
0.501625
0.596022
0.499748
0.55534
0.472012
0.603302
0.501853
0.560632
2.12521
0.558739
9.7753
0.621238
2.49856
0.57831
7.09494
0.599765
9.49317
0.559825
2.47111
0.621178
7.14043
0.578424
0.469478
0.557858
0.499742
0.603267
0.472014
0.56073
0.501855
0.473231
0.500093
0.498772
0.471812
0.473139
0.501626
0.498716
0.504558
0.537195
0.539266
0.50784
0.506171
0.537178
0.540329
0.550413
0.539585
0.541107
0.506401
0.556765
0.54056
0.569213
11.9385
0.541555
0.470317
0.574456
7.77961
0.579282
7.12247
0.554795
0.457848
0.541575
7.86328
0.574573
6.95165
0.579207
0.504331
0.541135
0.539631
0.556852
0.506404
0.569156
0.540565
0.507878
0.539355
0.537184
0.506173
0.507836
0.540332
0.537176
0.544472
0.581375
0.584009
0.547686
0.545572
0.58166
0.585159
0.543479
0.583916
0.585105
0.545802
0.572435
0.585381
0.613066
0.313176
0.585286
0.590351
0.582713
6.63803
0.622023
17.7087
0.543915
0.590339
0.585372
6.45851
0.582632
13.3302
0.622176
0.544503
0.585169
0.583984
0.572374
0.545807
0.613187
0.585388
0.547666
0.584127
0.581362
0.545575
0.547684
0.585163
0.581659
0.590261
0.633465
0.636824
0.59389
0.591258
0.633675
0.637475
0.588114
0.636794
0.638519
0.591478
0.615867
0.63763
0.660834
0.593015
0.638682
0.641641
0.624761
17.9861
0.670613
3.52275
0.58838
0.641639
0.638818
12.4137
0.624946
3.38972
0.670948
0.590133
0.638625
0.636899
0.616008
0.591485
0.661042
0.637634
0.59363
0.636988
0.633454
0.591262
0.59389
0.637478
0.633675
0.644026
0.695617
0.69971
0.648092
0.644633
0.695414
0.699527
0.64216
0.699716
0.703571
0.644768
0.663197
0.699532
0.703254
0.645264
0.703651
0.705392
0.672554
3.93122
0.70379
0.735037
0.64244
0.705412
0.703816
3.79584
0.672866
0.73504
0.70379
0.644035
0.703805
0.700055
0.663386
0.644772
0.703254
0.699534
0.647937
0.700156
0.695759
0.644635
0.648093
0.699528
0.695414
0.708483
0.770314
0.776179
0.712709
0.708147
0.769999
0.77494
0.708171
0.776117
0.778592
0.708141
0.707106
0.774914
0.774711
0.70973
0.778558
0.778976
0.707488
0.730502
0.774681
0.774568
0.708422
0.778959
0.778745
0.730512
0.707486
0.774568
0.77468
0.708818
0.778423
0.776494
0.707105
0.708142
0.774711
0.774915
0.713088
0.776462
0.770622
0.708147
0.712709
0.77494
0.769999
0.786344
0.861761
0.869927
0.791116
0.785498
0.861737
0.867984
0.789262
0.870444
0.871726
0.785473
0.785284
0.867966
0.867885
0.789598
0.87094
0.868007
0.785254
0.785141
0.86787
0.867826
0.789401
0.868007
0.871636
0.785141
0.785254
0.867826
0.86787
0.787351
0.871862
0.87023
0.785283
0.785474
0.867885
0.867967
0.791902
0.87033
0.861721
0.785498
0.791116
0.867984
0.861737
0.889614
0.977321
0.978473
0.888036
0.888026
0.977059
0.97698
0.890442
0.978862
0.97697
0.888004
0.887944
0.976969
0.976941
0.88795
0.97695
0.976945
0.887926
0.887894
0.976934
0.976921
0.889408
0.976945
0.976955
0.887894
0.887926
0.976921
0.976934
0.890406
0.976967
0.978734
0.887944
0.888004
0.976941
0.976969
0.888253
0.978336
0.977645
0.888027
0.888036
0.97698
0.977059
1.01254
1.12729
1.12612
1.01065
1.01057
1.1262
1.12612
1.01056
1.12612
1.12611
1.01057
1.01054
1.12612
1.12611
1.01055
1.12611
1.12611
1.01054
1.01053
1.1261
1.1261
1.01056
1.12611
1.12611
1.01053
1.01054
1.1261
1.1261
1.01197
1.12611
1.12612
1.01054
1.01057
1.12611
1.12612
1.01089
1.12613
1.12673
1.01057
1.01065
1.12612
1.1262
1.1706
1.30058
1.30057
1.17068
1.17059
1.30058
1.30057
1.17059
1.30057
1.30057
1.17059
1.17059
1.30057
1.30057
1.17059
1.30057
1.30057
1.17058
1.17058
1.30057
1.30057
1.17059
1.30057
1.30057
1.17058
1.17058
1.30057
1.30057
1.1706
1.30057
1.30057
1.17059
1.17059
1.30057
1.30057
1.17071
1.30057
1.30058
1.17059
1.17068
1.30057
1.30058
0.35917
0.346787
0.360015
0.333547
0.362796
0.34649
0.362615
0.48067
0.362874
0.501095
0.371883
0.477716
0.371801
0.497914
1.23146
0.51358
1.50072
0.477908
0.474214
0.497486
0.49293
0.491814
1.44497
0.513913
0.474242
0.476082
0.492797
0.495503
0.361949
0.50109
0.362781
0.476504
0.372475
0.496476
0.37191
0.333874
0.360077
0.346781
0.363506
0.333954
0.363298
0.346908
0.36136
0.365555
0.368981
0.351014
0.363457
0.365286
0.369398
0.508316
0.371197
0.530818
0.37238
0.504908
0.376262
0.526762
1.58629
0.545516
1.80925
0.504487
0.499527
0.526571
0.521253
0.521665
1.74947
0.545847
0.499646
0.5025
0.52164
0.524662
0.364009
0.530766
0.371185
0.503485
0.372342
0.524967
0.376786
0.351296
0.368994
0.365544
0.364083
0.351436
0.369821
0.36572
0.372807
0.38638
0.387085
0.37029
0.372752
0.386111
0.386047
0.538667
0.388635
0.562449
0.379359
0.534515
0.39022
0.556965
1.86853
0.580773
1.99207
0.535275
0.532337
0.558232
0.568397
0.554352
1.94206
0.580783
0.53218
0.532487
0.564602
0.557462
0.374851
0.562334
0.388655
0.532882
0.379552
0.557366
0.390487
0.370545
0.38708
0.386364
0.373039
0.370728
0.386221
0.386565
0.392544
0.409617
0.410214
0.391674
0.39145
0.409323
0.409051
0.570497
0.41122
0.593857
0.395634
0.56558
0.411545
0.589809
2.01636
0.617545
2.02944
0.566706
0.583423
0.59187
0.658545
0.589918
2.00859
0.617115
0.577232
0.565849
0.638007
0.590698
0.393968
0.593689
0.411231
0.566036
0.39588
0.590404
0.411419
0.39193
0.410209
0.409594
0.391591
0.392133
0.409482
0.409798
0.416464
0.435708
0.436303
0.415545
0.415764
0.435254
0.435819
0.601501
0.436877
0.622274
0.417105
0.598021
0.436416
0.620286
2.02192
0.65224
1.97534
0.600018
0.688792
0.622157
0.783883
0.626142
1.98598
0.651317
0.662233
0.598746
0.740557
0.620533
0.417359
0.621843
0.436879
0.598784
0.417808
0.621313
0.436502
0.41583
0.4363
0.435682
0.415883
0.416027
0.435828
0.435754
0.441626
0.465199
0.467839
0.442271
0.44077
0.464673
0.466993
0.628473
0.468048
0.608918
0.439159
0.62565
0.466621
0.613296
1.97325
0.628358
2.203
0.625473
0.523176
0.61446
0.600753
0.64206
2.18624
0.627272
0.526399
0.62396
0.546575
0.61191
0.441743
0.609029
0.468044
0.626098
0.439308
0.614057
0.466639
0.442713
0.467837
0.465172
0.44076
0.442773
0.466939
0.465192
0.47183
0.498741
0.501638
0.472637
0.470964
0.49816
0.500564
0.603901
0.501876
0.561612
0.470661
0.609724
0.500539
0.567484
2.58161
0.58257
9.73465
0.610953
0.687367
0.569893
3.52344
0.622573
9.85209
0.581667
0.61107
0.608167
3.2834
0.566339
0.472039
0.561735
0.501871
0.610184
0.470515
0.568217
0.500578
0.473152
0.501637
0.498721
0.470812
0.473164
0.500628
0.498705
0.506184
0.537179
0.540336
0.507264
0.505076
0.536741
0.539354
0.557614
0.540575
0.56765
0.505066
0.561896
0.539374
0.540933
10.6487
0.577409
2.75883
0.564204
3.58513
0.541102
0.541647
0.57772
2.22641
0.577262
3.34034
0.560622
0.541383
0.540256
0.506418
0.567589
0.540574
0.562478
0.505125
0.540203
0.539425
0.507837
0.540338
0.537169
0.505163
0.50781
0.539413
0.537205
0.545577
0.581651
0.585151
0.547196
0.544476
0.581264
0.584011
0.570768
0.585373
0.61133
0.544492
0.543181
0.583916
0.585241
2.36628
0.619752
23.8221
0.543268
0.544457
0.585326
0.585829
0.580532
24.618
0.619853
0.544677
0.542564
0.585829
0.585295
0.545815
0.611487
0.585378
0.542456
0.544537
0.585474
0.583909
0.547675
0.585155
0.581646
0.544529
0.547698
0.584007
0.581331
0.591247
0.633666
0.637459
0.593609
0.590103
0.633442
0.637
0.614264
0.637604
0.660105
0.589992
0.588288
0.636871
0.638676
27.9724
0.669507
10.1206
0.588423
0.588893
0.638872
0.638894
0.622839
10.0255
0.669737
0.588898
0.588374
0.638893
0.638699
0.591471
0.660263
0.63761
0.588307
0.589986
0.638634
0.63684
0.593875
0.637464
0.63366
0.590104
0.593616
0.636993
0.633453
0.644618
0.695406
0.699529
0.647907
0.644158
0.695625
0.699942
0.66266
0.699529
0.703222
0.644196
0.642263
0.70022
0.704103
0.703746
0.74174
0.642445
0.642707
0.704458
0.704419
0.671937
0.741756
0.703759
0.642709
0.642354
0.704424
0.704327
0.644751
0.703238
0.699531
0.642239
0.644176
0.704053
0.700337
0.648077
0.699532
0.695398
0.644154
0.64792
0.700268
0.695643
0.708149
0.769989
0.774946
0.712943
0.708662
0.770523
0.77653
0.707081
0.774916
0.774715
0.709085
0.708573
0.7767
0.777856
0.73332
0.774685
0.774573
0.708888
0.7087
0.778933
0.77911
0.707463
0.774573
0.774685
0.708705
0.70876
0.779111
0.778914
0.70814
0.774716
0.774916
0.708528
0.708999
0.777742
0.776689
0.712692
0.774949
0.769979
0.708934
0.712955
0.776527
0.770538
0.785504
0.861725
0.86799
0.791724
0.787341
0.861961
0.870598
0.785288
0.867967
0.867887
0.787589
0.788536
0.87065
0.871053
0.785146
0.867873
0.867829
0.789632
0.789791
0.868998
0.867997
0.785259
0.867829
0.867872
0.789792
0.789645
0.867997
0.869368
0.785475
0.867887
0.867967
0.788395
0.787583
0.87111
0.870644
0.791094
0.867993
0.861711
0.787284
0.791757
0.870598
0.86199
0.888028
0.977042
0.97698
0.889311
0.890708
0.978838
0.977836
0.887947
0.976969
0.976943
0.890816
0.889148
0.977335
0.976966
0.887897
0.976935
0.976922
0.887985
0.887964
0.976961
0.976952
0.887928
0.976922
0.976935
0.887964
0.888335
0.976952
0.976959
0.888006
0.976943
0.976969
0.889198
0.890789
0.976968
0.977315
0.888008
0.97698
0.977025
0.890688
0.888995
0.977808
0.979155
1.01057
1.12618
1.12612
1.01158
1.01065
1.1263
1.12729
1.01055
1.12612
1.12611
1.01061
1.01056
1.12662
1.12611
1.01053
1.1261
1.1261
1.01056
1.01055
1.12611
1.12611
1.01054
1.1261
1.1261
1.01055
1.01056
1.12611
1.12611
1.01057
1.12611
1.12612
1.01056
1.0106
1.12611
1.12661
1.01061
1.12612
1.12616
1.01064
1.01171
1.12784
1.12618
1.17059
1.30058
1.30057
1.17116
1.17068
1.30075
1.30057
1.17059
1.30057
1.30057
1.1706
1.17059
1.30057
1.30057
1.17058
1.30057
1.30057
1.17059
1.17059
1.30057
1.30057
1.17058
1.30057
1.30057
1.17059
1.17059
1.30057
1.30057
1.17059
1.30057
1.30057
1.17059
1.1706
1.30057
1.30057
1.17063
1.30057
1.30058
1.17113
1.17104
1.30058
1.30097
0.366181
0.346527
0.365703
0.332617
0.333586
0.345695
0.346513
0.436199
0.370944
0.449286
0.33357
0.333657
0.346509
0.346605
0.440384
0.449552
0.453572
0.333659
0.333661
0.346614
0.346611
0.436299
0.45361
0.448029
0.33366
0.333662
0.346611
0.346604
0.371692
0.446592
0.371077
0.333665
0.333617
0.346595
0.346515