/*--------------------------------*- C++ -*----------------------------------*\
| =========                 |                                                 |
| \\      /  F ield         | OpenFOAM: The Open Source CFD Toolbox           |
|  \\    /   O peration     | Version:  2206                                  |
|   \\  /    A nd           | Website:  www.openfoam.com                      |
|    \\/     M anipulation  |                                                 |
\*---------------------------------------------------------------------------*/
FoamFile
{
    version     2.0;
    format      ascii;
    arch        "LSB;label=32;scalar=64";
    class       volScalarField;
    location    "400";
    object      nut;
}
// * * * * * * * * * * * * * * * * * * * * * * * * * * * * * * * * * * * * * //

dimensions      [0 2 -1 0 0 0 0];

internalField   nonuniform List<scalar> 
187974
(
0.0421601
0.0419316
0.0418644
0.0418154
0.0418162
0.0418688
0.0419202
0.0421821
0.0425656
0.0423909
0.0423372
0.0422972
0.042298
0.042341
0.0423794
0.0425894
0.0427702
0.0426418
0.0425976
0.042568
0.0425688
0.0426
0.0426292
0.0427924
0.0429743
0.0428939
0.042885
0.0428742
0.0428749
0.0428817
0.042876
0.0429926
0.0432377
0.0431575
0.0431455
0.043175
0.0431753
0.0431459
0.0431405
0.0432507
0.0435179
0.0434322
0.0434122
0.0434741
0.0434736
0.0434161
0.0434197
0.0435231
0.0437979
0.0437093
0.0437017
0.043762
0.0437603
0.0437049
0.0436953
0.0437952
0.0440734
0.0439908
0.0439944
0.0440465
0.0440441
0.0439973
0.0439763
0.0440752
0.0443285
0.0442931
0.0442928
0.0443405
0.0443389
0.044295
0.0442759
0.0443448
0.0445741
0.0445898
0.0445892
0.0446388
0.0446385
0.0445918
0.0445691
0.0445934
0.0448973
0.0448927
0.0448956
0.0448982
0.0448985
0.044896
0.0448762
0.0449064
0.0451831
0.0451785
0.0451781
0.0451745
0.0451745
0.0451781
0.04516
0.0452009
0.0454899
0.04548
0.0454804
0.0454817
0.0454816
0.0454806
0.0454613
0.0455087
0.0458266
0.0458155
0.0458167
0.0458175
0.0458177
0.0458176
0.0457977
0.0458453
0.0461972
0.0461853
0.046187
0.0461876
0.0461878
0.0461877
0.0461718
0.0462103
0.0466108
0.0465974
0.0465985
0.0465987
0.0465987
0.0465987
0.0465995
0.0466092
0.047062
0.0470619
0.047062
0.0470618
0.0470617
0.0470619
0.0470624
0.0470679
0.047592
0.0475893
0.0475897
0.0475898
0.0475898
0.0475897
0.0475893
0.0475917
0.0481957
0.0481927
0.0481928
0.0481929
0.0481929
0.0481928
0.0481926
0.0481957
0.0488697
0.0488679
0.048868
0.048868
0.048868
0.0488679
0.0488678
0.0488697
0.0402467
0.0425784
0.0426382
0.0426783
0.0426776
0.0426342
0.0425745
0.040211
0.0408855
0.0428452
0.0428948
0.042931
0.0429303
0.0428909
0.0428417
0.040823
0.0392968
0.042682
0.042773
0.042878
0.0428919
0.0428361
0.0427227
0.0429179
0.0401359
0.0430083
0.0430266
0.0431122
0.0431238
0.0430744
0.0430142
0.0429833
0.0406465
0.0433355
0.0432817
0.0433187
0.0433294
0.0432994
0.0433637
0.0432669
0.0412746
0.0435781
0.0436115
0.0435323
0.0435291
0.0435708
0.0436047
0.0435215
0.0419168
0.0438205
0.0438458
0.0437454
0.0437353
0.0437961
0.0438421
0.0437777
0.0425661
0.0440757
0.0440827
0.0440042
0.0439989
0.044038
0.0440895
0.0440398
0.0431913
0.044321
0.044312
0.0442831
0.0442842
0.0442777
0.0443232
0.0442828
0.0438231
0.0445586
0.044572
0.0445821
0.0445818
0.0445685
0.0445659
0.0445354
0.0444173
0.044838
0.0448344
0.0448343
0.0448343
0.044834
0.0448329
0.0448251
0.0449398
0.0451112
0.0451092
0.045109
0.0451092
0.0451088
0.0451105
0.0450962
0.0454248
0.0454087
0.0454078
0.0454074
0.0454073
0.0454073
0.0454084
0.0453932
0.0457345
0.0457325
0.045733
0.0457343
0.0457346
0.0457342
0.0457327
0.0457153
0.0460899
0.0460905
0.0460929
0.0460962
0.0460975
0.046097
0.0460944
0.0460732
0.0464826
0.0464863
0.04649
0.0464912
0.0464913
0.0464908
0.0464895
0.0464713
0.0469234
0.0469286
0.0469313
0.0469317
0.0469316
0.0469314
0.04693
0.0469155
0.0474252
0.0474299
0.0474315
0.0474322
0.0474321
0.0474317
0.0474305
0.047427
0.0480055
0.0480076
0.0480064
0.0480065
0.0480065
0.0480062
0.0480088
0.0480041
0.0488775
0.0488756
0.0488747
0.0488747
0.0488747
0.0488747
0.0488761
0.0488769
0.0403507
0.0432351
0.0436596
0.0436809
0.0436813
0.0436609
0.0432319
0.0403404
0.0410056
0.0429732
0.042953
0.0429691
0.0429723
0.0429649
0.0430032
0.0410034
0.0399418
0.043182
0.0432098
0.0432199
0.0432225
0.0432155
0.0432004
0.0429884
0.040667
0.0433258
0.0433272
0.0433269
0.0433265
0.0433267
0.0433286
0.0429061
0.0412598
0.043502
0.0435062
0.0435079
0.0435078
0.0435074
0.0435064
0.043098
0.0418598
0.0436883
0.0436932
0.0436954
0.0436958
0.0436947
0.043693
0.0432783
0.04246
0.0438856
0.0438897
0.0438919
0.0438928
0.0438912
0.0438895
0.0434729
0.0429692
0.0440944
0.0440971
0.0440994
0.0441004
0.0440986
0.044097
0.043898
0.0435096
0.0443145
0.0443169
0.0443191
0.0443199
0.0443183
0.0443167
0.044311
0.0439896
0.0445602
0.0445511
0.0445526
0.0445529
0.0445518
0.0445516
0.044572
0.0443647
0.04481
0.0448039
0.0448021
0.0448019
0.0448016
0.0448053
0.0448345
0.0448745
0.0450792
0.0450751
0.0450727
0.045072
0.0450725
0.0450761
0.0451109
0.0453603
0.0453733
0.0453721
0.0453675
0.045367
0.0453675
0.0453728
0.0454086
0.0457318
0.0456934
0.0456915
0.0456914
0.0456912
0.045691
0.0456921
0.0457323
0.0460895
0.0460465
0.0460484
0.0460535
0.0460561
0.0460552
0.0460489
0.0460883
0.046483
0.0464362
0.0464425
0.0464462
0.046446
0.0464444
0.0464412
0.0464818
0.0469243
0.0468724
0.0468779
0.0468818
0.0468814
0.0468797
0.0468752
0.046922
0.0474296
0.0473666
0.0473691
0.0473639
0.0473606
0.0473656
0.0473658
0.0474261
0.0480065
0.0479268
0.0479167
0.0479116
0.0479116
0.0479116
0.0479234
0.0480005
0.0488747
0.0486679
0.0486677
0.0486677
0.0486677
0.0486677
0.0486677
0.0488746
0.0404685
0.0436198
0.0443868
0.0459569
0.0459506
0.0443843
0.0436564
0.0404328
0.0410655
0.0430068
0.0445769
0.0446136
0.0454213
0.0445881
0.0446175
0.041074
0.0399072
0.0432438
0.0447034
0.0450087
0.0458253
0.0447785
0.0446664
0.0430191
0.0406182
0.0433421
0.0448368
0.0449967
0.0451858
0.0449645
0.0447801
0.0429543
0.0411887
0.0435194
0.0444442
0.0452128
0.0454602
0.0451678
0.0443439
0.0431743
0.0417511
0.0437043
0.0440627
0.0455033
0.0458022
0.0454298
0.0439378
0.0434111
0.042307
0.0439
0.0440006
0.0458301
0.046517
0.0457651
0.0439007
0.043807
0.0428498
0.0441075
0.044165
0.0461939
0.051701
0.0461184
0.0440907
0.0440424
0.0433728
0.0443277
0.0442789
0.0464463
0.0448729
0.0464249
0.0442977
0.044287
0.0438738
0.0445625
0.0445219
0.0468459
0.0901357
0.0467961
0.0445434
0.044548
0.0443578
0.0448138
0.0447879
0.046385
0.251724
0.0463088
0.0447941
0.0448246
0.0448491
0.0450842
0.0450693
0.0451531
0.026654
0.045132
0.0450679
0.0451128
0.0453207
0.0453758
0.0453591
0.0453962
0.045623
0.0453879
0.0453593
0.0454101
0.0457455
0.0456944
0.0456753
0.0456956
0.0458303
0.0456908
0.0456755
0.0457326
0.0460901
0.0460453
0.0460238
0.0460286
0.0460482
0.0460279
0.0460244
0.0460877
0.046482
0.0464327
0.0464053
0.0464219
0.0464239
0.0464211
0.0464116
0.04648
0.0469219
0.0468633
0.0468691
0.0468675
0.0468618
0.0468739
0.0468725
0.0469182
0.0474198
0.0473502
0.0473553
0.0473496
0.0473496
0.0473496
0.0473563
0.0474176
0.0479971
0.0479126
0.047911
0.047911
0.047911
0.047911
0.047911
0.0479938
0.0488737
0.0486678
0.0486677
0.0486677
0.0486677
0.0486677
0.0486677
0.0488737
0.0404138
0.0436606
0.0443719
0.0465406
0.0465419
0.0443699
0.04356
0.0405043
0.0410257
0.0429779
0.0445951
0.0458321
0.053154
0.0446492
0.0446592
0.041006
0.0399235
0.0432375
0.0446863
0.0463633
0.05658
0.0448474
0.0446549
0.0433196
0.0406401
0.0433454
0.0446871
0.0459336
0.0716467
0.0452054
0.0446228
0.0431984
0.0412172
0.0435207
0.0442132
0.0462764
0.0816606
0.0454736
0.0441449
0.0433778
0.0417839
0.0437061
0.0439094
0.0466703
0.0866544
0.0457985
0.0438503
0.0435813
0.042341
0.0439021
0.0439586
0.0471645
0.0843293
0.0461847
0.0439128
0.0437966
0.0428821
0.0441097
0.0441554
0.0477103
0.0758344
0.0465882
0.0441197
0.0440257
0.0434016
0.04433
0.0443426
0.0477738
0.0600445
0.047222
0.0443339
0.044271
0.0438979
0.0445646
0.0445821
0.0482872
0.0654979
0.0475754
0.0445702
0.0445338
0.0443757
0.0448158
0.0448323
0.0478263
0.20797
0.0468928
0.0448205
0.0448126
0.0448449
0.0450861
0.0450983
0.0468343
0.0280901
0.0463558
0.0450877
0.0451065
0.0452983
0.0453783
0.0453842
0.0467966
0.205404
0.0464362
0.0453755
0.0454075
0.045744
0.045696
0.0456897
0.0468221
0.0464701
0.0456844
0.0457324
0.0460894
0.0460443
0.0460238
0.0460935
0.031008
0.0460773
0.0460226
0.0460864
0.0464814
0.0464304
0.0464039
0.0464044
0.0464056
0.0464042
0.0464039
0.0464787
0.0469209
0.046862
0.046862
0.0468617
0.0468617
0.0468618
0.0468621
0.0469179
0.0474194
0.04735
0.0473496
0.0473495
0.0473495
0.0473495
0.0473496
0.0474162
0.0479967
0.0479114
0.047911
0.047911
0.0479109
0.047911
0.047911
0.0479934
0.0488737
0.0486678
0.0486677
0.0486677
0.0486677
0.0486677
0.0486677
0.0488737
0.0403763
0.0432418
0.0436981
0.0437323
0.0437148
0.0436599
0.0431769
0.0403864
0.041047
0.0430281
0.0446203
0.0446124
0.0446057
0.0446019
0.0445425
0.0409022
0.0400764
0.0432763
0.0446808
0.0446792
0.0446662
0.0446731
0.0445664
0.0432219
0.0406143
0.0433143
0.0448361
0.044763
0.0447484
0.0447704
0.0448282
0.0431225
0.041261
0.0434967
0.0444473
0.0447817
0.0447811
0.0447701
0.0444278
0.043439
0.0418514
0.0436884
0.0440517
0.0448543
0.0448389
0.0448226
0.0439978
0.0436457
0.042433
0.043887
0.0439793
0.0450561
0.0448423
0.0450273
0.0439192
0.0438542
0.0430072
0.0440967
0.0441401
0.0453743
0.0447594
0.0453411
0.0440975
0.044068
0.0436376
0.0443166
0.0442854
0.0461688
0.0457075
0.0461498
0.0443012
0.044307
0.043988
0.0445539
0.044539
0.0465418
0.0406657
0.0464991
0.0445413
0.0445578
0.0445465
0.0448075
0.0447951
0.0462271
0.0181693
0.0462134
0.0447956
0.0448234
0.0449003
0.0450818
0.0450651
0.0450721
0.0451201
0.0450717
0.045065
0.045115
0.0453601
0.0453749
0.0453559
0.0453615
0.0453984
0.0453586
0.0453553
0.0454087
0.0457318
0.0456938
0.0456742
0.0456748
0.0456994
0.0456733
0.0456731
0.045732
0.0460894
0.0460447
0.0460244
0.0460266
0.0460307
0.0460257
0.0460259
0.046087
0.0464829
0.0464337
0.0464131
0.0464256
0.0464244
0.0464223
0.0464117
0.0464813
0.0469256
0.046867
0.046873
0.0468732
0.0468645
0.0468772
0.0468727
0.0469235
0.0474211
0.047358
0.047351
0.0473496
0.0473496
0.0473496
0.0473549
0.0474194
0.0479976
0.0479164
0.0479126
0.047911
0.047911
0.047911
0.0479187
0.047996
0.048876
0.0486696
0.0486677
0.0486677
0.0486677
0.0486677
0.0486677
0.0488761
0.040635
0.0426731
0.0427653
0.0428
0.0428138
0.0427611
0.0425582
0.0405264
0.0409158
0.0429466
0.0430101
0.0430459
0.0430567
0.043027
0.0428171
0.0408206
0.0397479
0.0431976
0.0431768
0.0431788
0.0431777
0.043184
0.0432031
0.0430518
0.0402567
0.0433502
0.0433506
0.043349
0.0433482
0.0433483
0.0433464
0.0430733
0.0410343
0.0435273
0.0435239
0.0435256
0.0435256
0.0435256
0.0435235
0.0432597
0.0416716
0.0437136
0.0437115
0.0437126
0.0437126
0.0437127
0.0437106
0.0434431
0.0421078
0.0439099
0.0439092
0.0439101
0.0439101
0.0439103
0.0439083
0.0436804
0.0427128
0.0441194
0.0441183
0.0441191
0.0441192
0.0441196
0.044118
0.0440141
0.0432423
0.0443426
0.0443406
0.0443413
0.0443413
0.0443419
0.0443406
0.0442632
0.0438965
0.0445795
0.0445778
0.0445783
0.0445781
0.0445786
0.0445776
0.0445653
0.0444822
0.0448346
0.0448324
0.0448319
0.0448316
0.0448322
0.0448326
0.0448227
0.0450492
0.0451101
0.0451074
0.0451063
0.0451058
0.0451072
0.0451088
0.045115
0.0454053
0.0454086
0.0454063
0.0454053
0.0454047
0.0454063
0.0454066
0.045409
0.0457314
0.0457321
0.0457311
0.0457329
0.0457324
0.0457329
0.0457304
0.0457325
0.0460887
0.0460918
0.0460948
0.0460985
0.046098
0.0460978
0.0460917
0.0460894
0.0464853
0.0464899
0.0464902
0.0464932
0.0464932
0.0464924
0.0464887
0.0464854
0.0469278
0.0469312
0.046932
0.046935
0.0469352
0.0469346
0.0469305
0.0469272
0.047427
0.0474316
0.0474343
0.0474343
0.0474349
0.047435
0.0474318
0.0474259
0.0480038
0.0480114
0.0480117
0.0480096
0.0480099
0.0480097
0.0480122
0.0480082
0.0488791
0.0488789
0.0488782
0.0488782
0.0488782
0.0488782
0.0488791
0.0488783
0.0417705
0.0419942
0.0427755
0.0428245
0.0428246
0.0427077
0.0420984
0.04232
0.0424939
0.0425328
0.0430506
0.0430585
0.0430589
0.0430502
0.0425965
0.0427075
0.0427048
0.0429032
0.0431991
0.0432042
0.0432044
0.0432122
0.0428961
0.0428915
0.0430335
0.0431244
0.0433811
0.0433787
0.0433789
0.0433834
0.0432115
0.043139
0.0433808
0.0435017
0.0435598
0.0435581
0.0435584
0.0435585
0.043508
0.0434
0.0436358
0.0436934
0.0437483
0.0437482
0.0437486
0.0437493
0.0436977
0.0436531
0.0438659
0.043892
0.0439487
0.0439491
0.0439496
0.0439488
0.0438876
0.0438952
0.0441137
0.0441093
0.0441623
0.0441625
0.0441631
0.0441633
0.0441086
0.0441133
0.0443572
0.0443434
0.0443902
0.0443902
0.0443905
0.044391
0.0443881
0.0443605
0.0446241
0.0446277
0.0446337
0.0446339
0.044634
0.0446341
0.0446186
0.0446496
0.0449186
0.0448782
0.0448948
0.044895
0.044895
0.0448947
0.044881
0.0449098
0.0451973
0.0451612
0.0451761
0.0451762
0.0451763
0.045176
0.045161
0.0451937
0.0455068
0.0454652
0.0454817
0.0454818
0.0454818
0.0454816
0.0454655
0.0455018
0.0458412
0.0458004
0.0458175
0.0458178
0.0458179
0.0458174
0.0458006
0.045836
0.0462058
0.0461744
0.0461876
0.0461879
0.0461879
0.0461875
0.0461746
0.0462
0.0466056
0.0466009
0.0465986
0.0465988
0.0465988
0.0465985
0.046601
0.046599
0.0470698
0.0470611
0.0470616
0.0470618
0.0470618
0.0470615
0.0470615
0.0470634
0.0475972
0.047589
0.0475896
0.0475898
0.0475898
0.0475893
0.0475889
0.0475915
0.0481985
0.0481928
0.0481929
0.0481929
0.0481929
0.0481924
0.0481916
0.0481948
0.0488692
0.0488678
0.0488679
0.0488679
0.0488679
0.0488678
0.0488677
0.0488696
0.0433283
0.043457
0.043461
0.0433333
0.0448375
0.0434689
0.0445697
0.0433269
0.0434608
0.0434619
0.0448597
0.044755
0.0445891
0.0447548
0.0433265
0.0434622
0.043462
0.0447645
0.044791
0.044767
0.0448184
0.0433267
0.043462
0.043462
0.0447906
0.0447553
0.0448171
0.0447554
0.0433273
0.0434617
0.0434609
0.0447515
0.0448678
0.0447467
0.0446012
0.0433389
0.0434611
0.0434713
0.0448302
0.0433302
0.0445671
0.043466
0.0435062
0.0436407
0.0436454
0.0435147
0.0444537
0.043653
0.0441026
0.0435075
0.0436456
0.0436473
0.0444745
0.0447606
0.0441369
0.044809
0.0435078
0.0436477
0.043648
0.0447701
0.0448331
0.04483
0.0449164
0.0435077
0.043648
0.0436476
0.0448311
0.0447567
0.0449154
0.0447936
0.0435063
0.0436471
0.0436458
0.0447458
0.0444862
0.0447753
0.0441411
0.0435166
0.0436455
0.0436564
0.0444523
0.043512
0.0441036
0.0436534
0.043693
0.0438352
0.0438393
0.0436967
0.0440197
0.0438473
0.0439114
0.0436949
0.0438396
0.0438413
0.0440592
0.0448402
0.0439579
0.0449695
0.0436958
0.0438418
0.0438426
0.0448655
0.044969
0.0449994
0.0451553
0.0436952
0.0438426
0.0438416
0.0449678
0.0448265
0.0451568
0.0449855
0.0436934
0.0438411
0.0438398
0.0448054
0.0440602
0.0449578
0.0439561
0.0437044
0.0438394
0.0438527
0.044021
0.0437027
0.0439115
0.0438486
0.0438894
0.0440412
0.0440439
0.0438979
0.0439248
0.0440536
0.0440421
0.0438914
0.0440442
0.0440458
0.043972
0.0450207
0.0440869
0.04522
0.0438928
0.0440464
0.0440474
0.0450567
0.0452127
0.0452669
0.0453364
0.0438917
0.0440474
0.0440462
0.0452159
0.0450542
0.0453499
0.0452655
0.0438899
0.0440457
0.0440444
0.0450269
0.0439679
0.0452293
0.044081
0.0439035
0.044044
0.0440602
0.043923
0.0438964
0.0440398
0.0440531
0.0440968
0.0442582
0.0442604
0.0441068
0.0440953
0.0442702
0.0442616
0.0440988
0.0442607
0.0442624
0.0441379
0.0452893
0.0442904
0.0455026
0.0441004
0.044263
0.0442638
0.0453379
0.0453638
0.0455501
0.0453585
0.0440992
0.0442638
0.0442628
0.0453809
0.045336
0.0453931
0.0455413
0.0440973
0.0442622
0.0442609
0.0452977
0.0441322
0.0455062
0.0442892
0.0441134
0.0442606
0.0442752
0.0440929
0.0441079
0.0442617
0.0442702
0.0443166
0.0444947
0.044491
0.0443271
0.0442955
0.0445016
0.0445105
0.0443185
0.0444909
0.0444922
0.044277
0.046189
0.0444911
0.0465079
0.0443199
0.0444929
0.0444933
0.0462017
0.0444506
0.0465348
0.0367149
0.0443189
0.0444933
0.0444926
0.0445871
0.0462012
0.0368882
0.0465317
0.0443171
0.044492
0.0444912
0.0461896
0.0442772
0.0464991
0.0444919
0.0443315
0.0444912
0.0445063
0.0442958
0.0443269
0.0445117
0.0445015
0.0445514
0.044745
0.0447399
0.0445616
0.0445417
0.0447483
0.0447598
0.044552
0.044739
0.0447377
0.0445225
0.0465442
0.0447523
0.0462371
0.0445529
0.0447381
0.0447379
0.0465762
0.0351043
0.046325
0.0478201
0.0445523
0.0447379
0.0447378
0.0351988
0.0465727
0.0459315
0.0463163
0.0445514
0.0447375
0.0447393
0.0465346
0.0445232
0.0462269
0.0447524
0.0445595
0.0447402
0.0447452
0.0445423
0.0445617
0.0447601
0.0447485
0.044805
0.0450094
0.0450065
0.0448128
0.0447923
0.0450131
0.0450312
0.0448018
0.0450058
0.0450033
0.0447864
0.0461042
0.0450331
0.045104
0.0448019
0.0450029
0.0450023
0.0461963
0.0568229
0.0451164
0.01981
0.0448017
0.0450023
0.0450024
0.0549229
0.0461871
0.0223852
0.0451143
0.0448042
0.0450029
0.045006
0.0460942
0.0447865
0.045103
0.0450333
0.0448097
0.0450067
0.0450091
0.0447926
0.044813
0.0450314
0.0450133
0.0450758
0.045297
0.0452957
0.0450817
0.045066
0.045299
0.0453188
0.045073
0.045295
0.045291
0.0450671
0.0451047
0.0453195
0.0453562
0.0450719
0.0452906
0.0452896
0.0451183
0.0397593
0.0453623
0.0454903
0.0450721
0.0452897
0.04529
0.0403178
0.045117
0.0454902
0.0453623
0.0450753
0.0452905
0.0452951
0.0451043
0.0450672
0.0453565
0.0453196
0.0450788
0.045296
0.0452966
0.0450661
0.0450821
0.0453188
0.0452994
0.0453725
0.0456102
0.0456091
0.0453748
0.0453572
0.0456111
0.0456321
0.045368
0.0456089
0.0456079
0.0453572
0.0453742
0.0456322
0.0456634
0.0453667
0.0456077
0.0456072
0.0453803
0.0455026
0.0456674
0.0457515
0.0453668
0.0456073
0.0456069
0.0455026
0.0453803
0.0457515
0.0456678
0.0453722
0.0456075
0.0456091
0.0453745
0.0453574
0.0456636
0.0456324
0.0453729
0.0456094
0.0456098
0.0453572
0.0453752
0.045632
0.0456115
0.0456918
0.0459554
0.045956
0.0456935
0.0456736
0.0459537
0.0459777
0.0456914
0.0459564
0.045958
0.0456725
0.0456829
0.0459784
0.0460022
0.045691
0.0459592
0.0459617
0.0456866
0.0457669
0.0460031
0.046022
0.0456907
0.0459618
0.0459611
0.0457668
0.0456871
0.0460219
0.0460036
0.0456917
0.0459609
0.0459575
0.0456831
0.0456727
0.0460025
0.0459791
0.0456929
0.0459567
0.045955
0.0456735
0.045694
0.0459785
0.045955
0.0460478
0.0463359
0.0463404
0.0460443
0.046025
0.0463321
0.0463601
0.0460518
0.0463416
0.0463435
0.046025
0.0460253
0.0463607
0.0463712
0.0460562
0.0463444
0.046344
0.0460263
0.0460424
0.0463716
0.0463748
0.0460557
0.0463446
0.0463432
0.0460423
0.0460269
0.0463746
0.0463725
0.0460505
0.0463428
0.0463418
0.0460261
0.0460261
0.0463716
0.0463607
0.046046
0.0463404
0.0463351
0.0460242
0.0460456
0.04636
0.0463324
0.0464413
0.0467579
0.0467613
0.0464336
0.0464102
0.0467492
0.0467859
0.0464452
0.0467639
0.0467676
0.0464096
0.0464216
0.0467895
0.0467958
0.0464455
0.0467683
0.0467672
0.0464219
0.0464247
0.0467957
0.046779
0.0464449
0.0467673
0.0467673
0.0464247
0.0464228
0.046779
0.0467965
0.0464426
0.0467665
0.0467633
0.0464219
0.0464121
0.0467954
0.0467857
0.0464353
0.0467612
0.0467546
0.0464109
0.0464336
0.0467858
0.0467498
0.0468759
0.0472375
0.0472386
0.0468643
0.0468757
0.0472287
0.0472368
0.0468813
0.0472403
0.047243
0.0468769
0.0468813
0.0472381
0.0472231
0.0468812
0.047241
0.0472381
0.0468769
0.0468662
0.0472215
0.0472215
0.0468802
0.047238
0.0472397
0.0468662
0.0468771
0.0472215
0.0472216
0.0468767
0.0472401
0.0472382
0.0468783
0.0468736
0.0472231
0.0472345
0.0468688
0.0472375
0.0472338
0.0468724
0.0468657
0.0472322
0.0472288
0.0473675
0.0477801
0.0477776
0.0473551
0.0473651
0.047772
0.0477635
0.0473692
0.0477744
0.0477629
0.0473632
0.0473497
0.0477622
0.0477622
0.0473607
0.0477628
0.0477628
0.0473496
0.0473496
0.0477622
0.0477622
0.0473626
0.0477628
0.0477628
0.0473496
0.0473496
0.0477622
0.0477622
0.0473654
0.0477629
0.0477748
0.0473497
0.0473616
0.0477622
0.0477622
0.047363
0.0477787
0.0477782
0.0473622
0.0473543
0.0477634
0.0477703
0.0479223
0.0483245
0.0483227
0.0479166
0.0479109
0.0483219
0.0483218
0.0479116
0.0483219
0.0483219
0.047911
0.047911
0.0483218
0.0483218
0.0479116
0.0483219
0.0483219
0.047911
0.047911
0.0483218
0.0483218
0.0479116
0.0483219
0.0483219
0.047911
0.047911
0.0483218
0.0483218
0.047917
0.0483219
0.0483219
0.047911
0.047911
0.0483218
0.0483218
0.0479251
0.0483235
0.0483247
0.0479108
0.0479156
0.0483219
0.048322
0.0448094
0.0434748
0.0444996
0.0433455
0.0446348
0.0434762
0.0442741
0.0449697
0.0445631
0.0451244
0.0446963
0.0452352
0.0443386
0.0454317
0.0451981
0.0451551
0.045401
0.0460033
0.0579268
0.0462675
0.0626299
0.0449888
0.0453774
0.0451431
0.0570904
0.0460071
0.0619382
0.0462936
0.0448268
0.0451135
0.0445417
0.0452284
0.0446979
0.0454354
0.0443384
0.0433476
0.0444757
0.0434884
0.0446367
0.0433457
0.0442775
0.0434764
0.0443779
0.0436571
0.0440368
0.0435209
0.0441564
0.0436587
0.0438913
0.0451842
0.0441364
0.0453901
0.0442178
0.0455077
0.043948
0.0457586
0.0454816
0.0454192
0.0457139
0.046359
0.0645195
0.046671
0.0712725
0.0452002
0.0457114
0.0453986
0.063982
0.0463858
0.0714111
0.0466953
0.0444263
0.0453572
0.0440988
0.0455095
0.0442192
0.0457594
0.0439484
0.0435351
0.044012
0.0436732
0.044159
0.043521
0.0438928
0.0436587
0.0439639
0.04385
0.0438894
0.0437059
0.043854
0.0438517
0.0438728
0.0454602
0.0439836
0.0457052
0.0439081
0.045851
0.0439192
0.0461532
0.0458039
0.0457484
0.0462335
0.0467876
0.0736087
0.0471845
0.0800763
0.0454747
0.0461779
0.0457295
0.0739697
0.0468109
0.0808636
0.0472043
0.0440284
0.0456703
0.043956
0.0458514
0.0439085
0.0461524
0.0439193
0.0437205
0.043878
0.0438614
0.0438551
0.0437059
0.0438732
0.0438516
0.0439092
0.0440545
0.0440374
0.0439017
0.0439111
0.0440561
0.0440651
0.0457803
0.0441151
0.0460417
0.0439551
0.0462574
0.0440988
0.0465738
0.0465908
0.0461033
0.049993
0.0473259
0.0817161
0.0477662
0.0845657
0.0458231
0.0494664
0.0460988
0.0825092
0.0473446
0.0848988
0.0477815
0.0439755
0.0460306
0.0440992
0.0462564
0.0439552
0.0465718
0.0440993
0.0438924
0.0440354
0.0440528
0.0439113
0.0439016
0.044065
0.044056
0.0440914
0.0442714
0.0442657
0.0441091
0.0441205
0.0442732
0.0442872
0.0461281
0.0443044
0.0463857
0.0441544
0.0466772
0.0443157
0.0469892
0.0522308
0.046464
0.0641929
0.04791
0.084746
0.0483309
0.0827465
0.0461898
0.0630893
0.0464621
0.0848219
0.0479241
0.0821682
0.048341
0.0441498
0.0463814
0.0443034
0.0466749
0.0441549
0.0469858
0.0443159
0.0441068
0.0442636
0.0442714
0.0441205
0.044109
0.0442872
0.0442731
0.0442968
0.0445023
0.0445132
0.0443295
0.0443327
0.0445042
0.0445388
0.0464223
0.0444906
0.0467624
0.0443404
0.0472709
0.0445497
0.0476145
0.0452695
0.0468129
0.0842858
0.0477907
0.0911091
0.0482758
0.0639753
0.0464498
0.0804941
0.0468171
0.0903244
0.0477884
0.0636023
0.0482765
0.0442766
0.046766
0.0444903
0.0472673
0.0443407
0.0476131
0.0445499
0.0443277
0.0445138
0.0445023
0.0443329
0.0443295
0.0445389
0.0445042
0.0445429
0.0447493
0.0447614
0.0445644
0.0445692
0.0447512
0.0447876
0.0467913
0.0447534
0.0464207
0.0445802
0.0476242
0.0447989
0.0470409
0.0933832
0.0465318
0.225907
0.0482913
0.065526
0.0478198
0.150335
0.046852
0.221285
0.046549
0.0649932
0.048293
0.15092
0.0478252
0.0445214
0.0464599
0.0447525
0.0476236
0.0445804
0.0470447
0.044799
0.0445625
0.0447616
0.0447493
0.0445693
0.0445644
0.0447877
0.0447512
0.0447939
0.0450147
0.0450332
0.0448158
0.0448197
0.0450166
0.0450527
0.0462757
0.0450373
0.0451333
0.0448309
0.046886
0.045063
0.0464021
0.254021
0.045156
0.0347211
0.0476899
0.162044
0.0468869
0.110957
0.046412
0.0339167
0.0451535
0.163234
0.047695
0.105872
0.0468838
0.0447869
0.0451316
0.0450374
0.0468895
0.044831
0.0463996
0.0450633
0.0448138
0.0450333
0.0450147
0.0448198
0.0448157
0.0450528
0.0450166
0.0450677
0.0453001
0.0453205
0.0450862
0.0450873
0.0453031
0.0453386
0.0451335
0.0453213
0.0453702
0.0450974
0.0464353
0.0453475
0.0464968
0.0267543
0.0453786
0.0456221
0.0469263
0.100053
0.0468873
0.128725
0.0451521
0.0456213
0.0453789
0.0944628
0.0469229
0.0994519
0.0468943
0.0450695
0.0453701
0.0453215
0.0464326
0.0450977
0.0465024
0.0453477
0.0450842
0.0453208
0.0453
0.0450874
0.0450862
0.0453387
0.0453031
0.045359
0.045612
0.0456341
0.0453784
0.0453757
0.045614
0.045645
0.0453879
0.0456349
0.0456713
0.0453845
0.0464976
0.0456512
0.0465165
0.0456234
0.0456771
0.0458192
0.0468829
0.127488
0.0469015
0.0153502
0.0453966
0.0458189
0.0456784
0.0901326
0.0468913
0.0151001
0.0469149
0.0453594
0.0456721
0.0456355
0.0465039
0.0453847
0.0465248
0.0456513
0.0453758
0.0456346
0.045612
0.0453759
0.0453784
0.045645
0.045614
0.0456749
0.0459547
0.0459773
0.0456961
0.0456848
0.045954
0.0459782
0.04569
0.0459777
0.0460041
0.0456905
0.0464862
0.0459799
0.0460741
0.0458305
0.0460056
0.0460293
0.0468531
0.0162884
0.0460973
0.0281087
0.045697
0.0460295
0.0460062
0.0160377
0.0468656
0.0281104
0.0460974
0.0456758
0.046005
0.0459794
0.0464938
0.0456906
0.0460742
0.0459799
0.0456945
0.0459793
0.0459555
0.0456849
0.0456961
0.0459782
0.045954
0.0460229
0.0463314
0.0463595
0.0460444
0.0460227
0.04633
0.0463537
0.0460271
0.0463594
0.0463717
0.0460239
0.0460782
0.0463538
0.0463548
0.046048
0.0463717
0.0463741
0.0460954
0.0369057
0.0463551
0.0463578
0.0460291
0.046374
0.0463726
0.0368863
0.0460954
0.0463578
0.0463551
0.0460249
0.0463708
0.0463611
0.0460782
0.046024
0.0463548
0.0463538
0.046046
0.0463607
0.0463328
0.0460227
0.0460444
0.0463537
0.04633
0.0464078
0.0467495
0.0467846
0.0464305
0.0464039
0.0467494
0.0467761
0.046422
0.0467868
0.0467923
0.0464039
0.0464043
0.0467761
0.0467758
0.046424
0.0467889
0.0467763
0.0464045
0.0464057
0.0467758
0.0467757
0.0464228
0.0467763
0.046792
0.0464057
0.0464045
0.0467757
0.0467758
0.0464126
0.0467929
0.0467858
0.0464043
0.0464039
0.0467758
0.0467761
0.046434
0.0467862
0.0467493
0.0464039
0.0464305
0.0467762
0.0467494
0.0468688
0.047223
0.0472274
0.0468621
0.0468621
0.0472221
0.0472216
0.0468723
0.0472289
0.0472216
0.046862
0.0468618
0.0472216
0.0472215
0.0468618
0.0472215
0.0472215
0.0468617
0.0468616
0.0472214
0.0472214
0.0468679
0.0472215
0.0472215
0.0468616
0.0468617
0.0472214
0.0472214
0.0468721
0.0472216
0.0472284
0.0468618
0.046862
0.0472215
0.0472216
0.046863
0.0472269
0.0472243
0.0468621
0.0468621
0.0472216
0.0472221
0.047357
0.0477664
0.0477622
0.0473501
0.0473496
0.0477627
0.0477622
0.0473496
0.0477622
0.0477622
0.0473496
0.0473495
0.0477622
0.0477622
0.0473496
0.0477622
0.0477622
0.0473495
0.0473495
0.0477622
0.0477622
0.0473496
0.0477622
0.0477622
0.0473495
0.0473495
0.0477622
0.0477622
0.0473549
0.0477622
0.0477622
0.0473495
0.0473496
0.0477622
0.0477622
0.047351
0.0477623
0.0477644
0.0473496
0.0473501
0.0477622
0.0477627
0.047911
0.0483219
0.0483218
0.0479114
0.047911
0.0483219
0.0483218
0.047911
0.0483218
0.0483218
0.047911
0.047911
0.0483218
0.0483218
0.047911
0.0483218
0.0483218
0.047911
0.0479109
0.0483218
0.0483218
0.047911
0.0483218
0.0483218
0.0479109
0.047911
0.0483218
0.0483218
0.047911
0.0483218
0.0483218
0.047911
0.047911
0.0483218
0.0483218
0.0479115
0.0483218
0.0483219
0.047911
0.0479114
0.0483218
0.0483219
0.0446257
0.043476
0.0442671
0.0433308
0.0447361
0.0434636
0.0444069
0.0452029
0.0443389
0.045399
0.0447932
0.0449548
0.0445194
0.0451094
0.0735725
0.0461889
0.0820012
0.0449716
0.0449328
0.0451215
0.0450067
0.0459485
0.0794066
0.0462188
0.0449418
0.0449618
0.0450302
0.0451088
0.0446858
0.0454019
0.0443312
0.0449474
0.0448072
0.0450964
0.044535
0.0433446
0.0442705
0.0434753
0.0447561
0.0433382
0.0444281
0.0434705
0.0441494
0.0436588
0.0438881
0.043509
0.0442838
0.043649
0.0439653
0.0454703
0.0439518
0.045709
0.0444087
0.0451646
0.0440912
0.0453473
0.0842518
0.0465614
0.0886246
0.0451767
0.0450411
0.0453645
0.0451996
0.0463092
0.0860702
0.0465971
0.0450664
0.0451636
0.0452444
0.0453519
0.0442138
0.0457101
0.043948
0.0451514
0.0444227
0.045328
0.0441082
0.04352
0.0438893
0.0436581
0.0443055
0.0435156
0.0439828
0.0436551
0.0438523
0.0438521
0.0438743
0.0436968
0.0439052
0.0438438
0.0438649
0.0457967
0.0439231
0.046085
0.0440262
0.0454167
0.0439491
0.0456394
0.08915
0.0470309
0.0878521
0.0454445
0.045432
0.0456723
0.0462965
0.0467013
0.0856226
0.0470577
0.0454501
0.0454241
0.0461238
0.0456749
0.0439095
0.0460834
0.0439224
0.0453984
0.0440404
0.0456374
0.0439615
0.0437055
0.0438743
0.0438515
0.0439199
0.0437027
0.0438717
0.0438493
0.0439132
0.0440566
0.044065
0.043894
0.0438956
0.044049
0.0440361
0.0461853
0.0441029
0.0464914
0.0439752
0.0457289
0.0440949
0.045994
0.0865464
0.0475722
0.0800137
0.0457604
0.0467212
0.0460314
0.0495135
0.0471859
0.0784745
0.0475868
0.0464208
0.0457632
0.048448
0.0460344
0.0439585
0.0464873
0.0441029
0.0457266
0.0439864
0.0459916
0.0440995
0.0439016
0.0440649
0.0440561
0.0438996
0.0438994
0.0440408
0.0440539
0.0441198
0.0442736
0.0442864
0.0441022
0.0440955
0.0442659
0.0442657
0.0465915
0.0443154
0.0468912
0.0441425
0.0460847
0.0443044
0.0463495
0.0772859
0.0481088
0.0680848
0.0461193
0.0506328
0.046377
0.0537684
0.0477177
0.0673263
0.0481012
0.0492632
0.0461222
0.0516605
0.0463799
0.0441553
0.0468863
0.0443154
0.0460835
0.0441553
0.0463494
0.044309
0.0441092
0.0442864
0.0442732
0.0440967
0.0441069
0.044266
0.0442701
0.044334
0.0445045
0.0445399
0.0443225
0.0443015
0.0444978
0.0445149
0.0472298
0.0445516
0.047567
0.0442806
0.0463726
0.044506
0.0467213
0.0636307
0.0482594
0.0585374
0.0463783
0.0399035
0.0467441
0.0407284
0.0477615
0.0579459
0.0482406
0.0402844
0.0463859
0.0379536
0.0467533
0.0443424
0.0475616
0.0445513
0.0463757
0.0442837
0.046728
0.0445066
0.0443296
0.0445398
0.0445042
0.0443011
0.0443264
0.0445138
0.0445011
0.0445703
0.0447513
0.0447885
0.0445583
0.0445454
0.0447461
0.044764
0.0475821
0.0448004
0.0470563
0.0445378
0.0467621
0.0447636
0.04655
0.0656703
0.0479573
0.191537
0.0467889
0.0444237
0.046615
0.143331
0.0482694
0.193259
0.0479282
0.0405661
0.046796
0.136271
0.0465691
0.0445818
0.0470559
0.0448001
0.0467685
0.044537
0.0465563
0.0447639
0.0445644
0.0447884
0.0447512
0.0445445
0.0445614
0.0447645
0.0447485
0.0448206
0.0450166
0.0450532
0.044811
0.0447961
0.0450144
0.0450318
0.0469035
0.045064
0.0463295
0.0447964
0.0464242
0.0450333
0.0451002
0.205407
0.0468016
0.042887
0.0464891
0.148271
0.0451096
0.0451628
0.0478047
0.0321257
0.0467946
0.14096
0.046437
0.0451382
0.0450906
0.0448321
0.0463266
0.0450639
0.0464302