/*--------------------------------*- C++ -*----------------------------------*\
| =========                 |                                                 |
| \\      /  F ield         | OpenFOAM: The Open Source CFD Toolbox           |
|  \\    /   O peration     | Version:  2206                                  |
|   \\  /    A nd           | Website:  www.openfoam.com                      |
|    \\/     M anipulation  |                                                 |
\*---------------------------------------------------------------------------*/
FoamFile
{
    version     2.0;
    format      ascii;
    arch        "LSB;label=32;scalar=64";
    class       volScalarField;
    location    "400";
    object      omega;
}
// * * * * * * * * * * * * * * * * * * * * * * * * * * * * * * * * * * * * * //

dimensions      [0 0 -1 0 0 0 0];

internalField   nonuniform List<scalar> 
187974
(
7.58222
7.42575
7.38239
7.34986
7.35031
7.38509
7.41846
7.61953
7.94485
7.78231
7.75046
7.71749
7.71807
7.75296
7.77284
7.98604
8.1672
8.0116
7.99383
7.96167
7.96233
7.9953
8
8.21101
8.412
8.25935
8.28431
8.25911
8.25967
8.28026
8.2416
8.46043
8.73009
8.55527
8.58597
8.59064
8.59135
8.58521
8.53698
8.78302
9.08347
8.90684
8.92807
8.961
8.96237
8.93201
8.89341
9.13927
9.4683
9.31127
9.33886
9.36095
9.36328
9.3421
9.29501
9.52223
9.90766
9.77514
9.80161
9.79265
9.79603
9.80494
9.757
9.96902
10.4013
10.324
10.3308
10.2748
10.2777
10.3335
10.3032
10.4821
10.9609
10.9204
10.9173
10.8489
10.8495
10.9215
10.8988
11.0532
11.7171
11.6011
11.6031
11.6002
11.5996
11.6043
11.5832
11.8045
12.5082
12.4614
12.4602
12.4678
12.4674
12.4603
12.4232
12.6241
13.5323
13.4653
13.4661
13.4653
13.4653
13.4665
13.4251
13.6609
14.7171
14.6388
14.6414
14.6456
14.6462
14.6447
14.5966
14.8563
16.1302
16.0448
16.0506
16.0535
16.0544
16.0533
16.01
16.2527
17.8379
17.7504
17.7545
17.7558
17.756
17.7556
17.7596
17.8317
19.851
19.8648
19.8655
19.8649
19.8649
19.8653
19.8674
19.8907
22.5559
22.5419
22.5442
22.545
22.545
22.5442
22.542
22.55
26.0384
26.0251
26.0263
26.0265
26.0265
26.0263
26.0249
26.0399
30.6117
30.6009
30.6013
30.6017
30.6017
30.6013
30.6007
30.6119
7.825
6.56806
6.61202
6.63994
6.63942
6.60905
6.56543
7.83902
8.2386
7.01157
7.05275
7.08114
7.08057
7.04954
7.00868
8.2755
9.64152
6.99341
7.0676
7.14979
7.16103
7.11653
7.02826
6.8075
9.97155
7.43761
7.45623
7.52814
7.5384
7.49593
7.44585
7.4502
10.3252
7.92528
7.87952
7.91126
7.92131
7.8942
7.95605
7.90075
10.5158
8.37878
8.4169
8.33229
8.32909
8.37306
8.40934
8.34157
10.7487
8.87285
8.90298
8.7876
8.77626
8.84555
8.89875
8.83165
11.0473
9.42695
9.4351
9.33644
9.32981
9.37879
9.44417
9.38451
11.3481
10.018
10.0049
9.96548
9.96691
9.95759
10.0207
9.96722
11.703
10.6513
10.6717
10.6879
10.6875
10.6661
10.663
10.6166
12.1029
11.413
11.4054
11.4052
11.4051
11.4045
11.4039
11.3896
12.5489
12.2404
12.2342
12.2334
12.2338
12.2328
12.2385
12.2126
13.1783
13.2004
13.1972
13.1954
13.1951
13.1953
13.1998
13.1679
14.3257
14.3224
14.3237
14.3279
14.3289
14.328
14.3234
14.2823
15.6606
15.6634
15.6725
15.6849
15.6903
15.6887
15.6791
15.6198
17.2633
17.2778
17.2937
17.2986
17.2988
17.2973
17.2923
17.2344
19.2398
19.2597
19.2727
19.2744
19.2739
19.2729
19.2673
19.2137
21.7336
21.7538
21.7624
21.7654
21.7651
21.7634
21.758
21.7426
24.9734
24.9822
24.9755
24.9762
24.9765
24.9746
24.9901
24.9659
30.6536
30.6405
30.6334
30.6336
30.6336
30.6335
30.6436
30.65
8.24878
6.9498
7.32234
7.40504
7.40356
7.32168
6.94904
8.25344
8.69265
7.06447
7.0375
7.02842
7.02917
7.0382
7.08919
8.70049
10.6926
7.38718
7.41024
7.41037
7.41052
7.41019
7.41059
6.91672
10.5948
7.66791
7.70096
7.70187
7.70135
7.70117
7.70127
7.47632
10.7391
8.03596
8.06978
8.0712
8.07075
8.07031
8.06984
7.84656
10.9414
8.44026
8.47505
8.47671
8.47631
8.47566
8.47509
8.22382
11.1934
8.88644
8.92277
8.92454
8.92418
8.92338
8.92278
8.6552
11.3748
9.38144
9.41968
9.42167
9.42131
9.42037
9.41966
9.32493
11.6922
9.93591
9.9737
9.97582
9.97534
9.97434
9.97372
10.0369
11.9836
10.6186
10.5969
10.5979
10.5971
10.5963
10.5987
10.69
12.1687
11.3193
11.3093
11.3012
11.2994
11.3
11.3136
11.4166
12.6975
12.1315
12.1217
12.1119
12.1074
12.1114
12.125
12.2448
13.3144
13.0771
13.0723
13.0544
13.0506
13.0547
13.0749
13.2042
14.3347
14.1772
14.1702
14.1677
14.165
14.1666
14.1726
14.3265
15.6602
15.4882
15.4959
15.515
15.5243
15.5217
15.4979
15.6605
17.2639
17.062
17.0899
17.1057
17.1046
17.098
17.0844
17.2656
19.2393
18.9955
19.0232
19.042
19.0397
19.0319
19.0108
19.2362
21.7514
21.4267
21.4425
21.4161
21.3985
21.4248
21.4253
21.7414
24.9739
24.5211
24.4649
24.4352
24.4351
24.435
24.5049
24.9474
30.633
29.2207
29.22
29.2201
29.22
29.2201
29.2195
30.6327
8.29807
7.12109
8.54556
9.46932
9.46945
8.54046
7.1373
8.27211
8.7043
7.06043
8.47967
9.61774
9.63436
9.73751
7.93404
8.71723
10.5907
7.40691
8.8025
10.1601
10.1747
10.1478
8.03919
6.99945
10.5145
7.70597
8.29365
10.5848
10.5497
10.5823
8.13506
7.54783
10.6598
8.07337
8.38659
11.1188
11.0974
11.116
8.21756
7.94259
10.8438
8.48049
8.62881
11.7185
11.6987
11.7077
8.48633
8.36727
11.0607
8.93047
8.99767
12.2837
12.4315
12.3243
8.90949
8.91625
11.3122
9.43061
9.46161
12.8559
13.8931
12.8963
9.41161
9.43055
11.6009
9.98996
9.89974
13.2866
13.938
13.3001
9.93665
10.0054
11.9344
10.6197
10.5456
12.7654
22.4592
12.7793
10.5696
10.6586
12.3331
11.3333
11.2605
11.9295
46.8187
11.9261
11.2655
11.4031
12.8606
12.1479
12.0803
12.0451
11.6859
12.0427
12.0833
12.2496
13.504
13.0828
13.0087
12.9591
12.9981
12.9589
13.0157
13.2076
14.3108
14.1797
14.0978
14.056
14.0794
14.0567
14.1038
14.3274
15.659
15.4841
15.396
15.3878
15.4132
15.3898
15.4012
15.6589
17.2603
17.0486
16.9335
17.0008
17.0083
16.9984
16.9611
17.2584
19.2298
18.9557
18.9822
18.9748
18.9483
19.0047
18.9985
19.2194
21.7014
21.3448
21.372
21.3425
21.3423
21.3425
21.3776
21.6983
24.919
24.4414
24.4327
24.4326
24.4325
24.4326
24.4327
24.908
30.6253
29.2201
29.22
29.22
29.22
29.22
29.22
30.6253
8.2532
7.14926
8.57353
9.52842
9.5309
8.58002
7.08209
8.327
8.66592
7.07033
8.34791
9.804
11.8094
9.735
7.88496
8.65576
10.603
7.42183
8.65998
10.37
12.7509
10.1502
7.98438
7.12835
10.5245
7.70272
8.0987
10.7027
16.6611
10.6318
8.04709
7.66865
10.6759
8.07207
8.23141
11.2623
18.7192
11.1757
8.18377
8.0471
10.8659
8.47836
8.53593
11.8703
20.8803
11.7573
8.50111
8.4543
11.0874
8.92776
8.9617
12.506
23.3364
12.3455
8.939
8.90685
11.3416
9.42771
9.45184
13.1308
26.4554
12.9011
9.43932
9.4144
11.6309
9.98737
9.96218
13.4493
30.609
13.3004
9.9613
9.98834
11.9628
10.6178
10.5882
12.9027
39.4336
12.6836
10.5862
10.6416
12.3562
11.3321
11.2959
12.0887
51.7584
11.8845
11.2936
11.3872
12.8468
12.1475
12.1028
12.399
66.1889
12.3119
12.1004
12.2397
13.4556
13.0873
13.0324
13.3068
137.361
13.2316
13.0302
13.2048
14.3084
14.1825
14.1114
14.3468
14.2628
14.1104
14.327
15.6564
15.4786
15.3864
15.3482
15.5935
15.3458
15.3871
15.6537
17.2579
17.0385
16.9269
16.9221
16.9192
16.9228
16.9276
17.253
19.2246
18.9497
18.9494
18.9478
18.9472
18.9482
18.9498
19.2181
21.6993
21.3438
21.3426
21.3421
21.3419
21.3422
21.3428
21.6907
24.9165
24.4337
24.4327
24.4325
24.4325
24.4325
24.4327
24.9056
30.6253
29.2201
29.22
29.22
29.22
29.22
29.22
30.6253
8.22335
6.94967
7.38036
7.47661
7.46041
7.34535
6.90727
8.28698
8.67346
7.06393
8.18921
8.59103
8.60704
8.56777
7.94261
8.60596
10.7372
7.42897
8.33751
8.76347
8.78005
8.72791
8.03121
7.07538
10.4695
7.6994
8.2817
9.76017
9.84164
9.71709
8.19565
7.64392
10.6633
8.07132
8.35231
10.1559
10.237
10.0705
8.26092
8.08462
10.8634
8.47887
8.59934
10.6044
10.7205
10.5159
8.51268
8.49841
11.1025
8.92688
8.98447
11.0768
11.2604
11.0172
8.92701
8.95118
11.3892
9.42602
9.45322
11.6506
11.7732
11.5838
9.43396
9.4614
11.8282
9.97879
9.92316
13.3959
13.3508
13.3285
9.94755
10.0219
11.9604
10.6056
10.5686
12.7856
12.5255
12.7478
10.5631
10.6649
12.467
11.3201
11.2744
11.9598
11.7756
11.9685
11.2765
11.3951
12.7379
12.1395
12.0801
12.032
12.0346
12.0306
12.0826
12.251
13.313
13.0809
13.009
12.9673
12.9569
12.9643
13.0099
13.2047
14.3367
14.1781
14.1024
14.0622
14.0528
14.0604
14.1008
14.3259
15.6621
15.4815
15.4013
15.399
15.3948
15.3959
15.4087
15.6558
17.2661
17.0528
16.967
17.0192
17.0126
17.0051
16.9619
17.2637
19.2489
18.9726
19.0004
19.0014
18.961
19.0204
18.9997
19.2439
21.7103
21.3854
21.3497
21.3427
21.3426
21.3427
21.3707
21.7075
24.9239
24.4625
24.4422
24.4326
24.4327
24.4326
24.4793
24.921
30.6432
29.2329
29.22
29.22
29.22
29.22
29.2193
30.6437
7.88163
6.63305
6.7025
6.7309
6.7407
6.70675
6.54178
7.53949
8.48651
7.09488
7.15099
7.18068
7.18695
7.16686
6.97846
8.15071
10.5568
7.4168
7.40568
7.40174
7.3995
7.40511
7.42199
7.03818
10.2982
7.74918
7.74916
7.74501
7.74316
7.74386
7.74065
7.56774
10.5874
8.11939
8.11347
8.11562
8.11532
8.11595
8.11228
7.93787
10.8195
8.52628
8.52394
8.52551
8.52514
8.52596
8.52207
8.33159
10.8956
8.97912
8.9772
8.97873
8.97844
8.97962
8.97559
8.80714
11.1184
9.48343
9.48089
9.48229
9.48239
9.48396
9.48042
9.39003
11.2792
10.0495
10.0447
10.0459
10.0455
10.0478
10.045
9.97338
11.5753
10.6842
10.6797
10.6806
10.6796
10.6818
10.6794
10.6646
11.9079
11.4082
11.4019
11.4002
11.3989
11.4011
11.4025
11.3938
12.3982
12.2402
12.2321
12.228
12.2264
12.2309
12.2363
12.2499
13.2104
13.2033
13.1962
13.1925
13.1901
13.196
13.1972
13.2029
14.3228
14.3247
14.3216
14.3275
14.3255
14.3277
14.3193
14.3241
15.6594
15.6726
15.6852
15.6996
15.6977
15.6971
15.6733
15.6612
17.2771
17.298
17.3004
17.3135
17.3131
17.31
17.2943
17.2762
19.2602
19.2774
19.2824
19.2967
19.2977
19.295
19.2754
19.2556
21.7428
21.7675
21.7839
21.784
21.7871
21.7879
21.7709
21.7351
24.9612
25.0089
25.0137
25.0011
25.0028
25.0014
25.0155
24.9858
30.6669
30.6649
30.6592
30.6594
30.6594
30.6589
30.6661
30.6603
7.40645
7.19116
6.78573
6.74723
6.74754
6.8023
7.32806
7.6021
7.68347
7.49678
7.19993
7.18936
7.19013
7.19667
7.62626
7.93712
7.9714
7.7723
7.47652
7.47268
7.47333
7.47267
7.78351
8.12909
8.30869
7.95545
7.82526
7.8274
7.82798
7.82666
7.98268
8.40858
8.73398
8.35726
8.20477
8.20673
8.20721
8.20636
8.25326
8.73928
9.10855
8.648
8.62627
8.62715
8.62787
8.62659
8.68571
9.10329
9.45134
9.14773
9.09267
9.09286
9.09395
9.09404
9.15904
9.49608
9.90281
9.66155
9.61217
9.6124
9.61372
9.61442
9.65213
9.90414
10.3904
10.2296
10.1958
10.1962
10.197
10.198
10.1677
10.401
10.9755
10.8215
10.8558
10.8564
10.8567
10.8568
10.8379
11.0228
11.7009
11.5815
11.6061
11.6066
11.6066
11.6059
11.5803
11.6837
12.5837
12.436
12.4664
12.467
12.467
12.4662
12.4377
12.578
13.5981
13.4297
13.4654
13.4658
13.4659
13.4651
13.4304
13.5874
14.7846
14.6024
14.6455
14.6468
14.647
14.6451
14.6033
14.7724
16.1722
16.0155
16.0527
16.0543
16.0543
16.0522
16.0164
16.1574
17.7572
17.7629
17.755
17.756
17.756
17.7545
17.7636
17.7372
19.8951
19.8609
19.8638
19.8646
19.8646
19.8633
19.8631
19.8734
22.5706
22.5405
22.5435
22.5446
22.5447
22.542
22.5397
22.5487
26.0517
26.0258
26.0263
26.0266
26.0266
26.0232
26.0175
26.034
30.6079
30.6003
30.6011
30.6014
30.6014
30.6009
30.5998
30.6109
7.70075
7.94068
7.97396
7.68017
8.20994
7.95191
8.24138
7.7016
7.97437
7.97528
8.25325
9.67128
8.2985
9.93689
7.70128
7.97566
7.97519
9.70241
9.76367
9.96734
10.0578
7.70126
7.97523
7.97503
9.76112
9.68988
10.0534
9.95198
7.70125
7.97485
7.97471
9.65723
8.24869
9.90857
8.28165
7.67583
7.97446
7.94947
8.21088
7.66397
8.24153
7.9364
8.06933
8.33564
8.36947
8.04771
8.27254
8.35302
8.43379
8.07074
8.36999
8.37106
8.32921
10.0584
8.49035
10.4099
8.07069
8.3716
8.37115
10.0723
10.1702
10.4577
10.5338
8.07051
8.3712
8.37086
10.165
10.0521
10.5315
10.3795
8.07012
8.37059
8.37038
10.0048
8.3122
10.3185
8.46933
8.04506
8.37003
8.34586
8.27234
8.03138
8.43249
8.33678
8.4745
8.77064
8.80587
8.4804
8.51283
8.81334
8.80892
8.47614
8.8065
8.80763
8.56811
10.5256
8.84066
10.8401
8.47626
8.80824
8.80784
10.5817
10.6751
10.9045
11.0927
8.47594
8.8079
8.8074
10.6723
10.5011
11.0907
10.8823
8.47545
8.80711
8.80693
10.4346
8.54628
10.8032
8.83481
8.45108
8.80652
8.7827
8.51124
8.44163
8.80665
8.77553
8.92209
9.25283
9.28967
8.93044
8.92469
9.30073
9.29457
8.92392
9.29043
9.29169
8.95301
10.9423
9.31231
11.2866
8.92412
9.29236
9.29195
11.0159
11.2209
11.3784
11.6096
8.92368
9.29201
9.29141
11.2184
11.0137
11.608
11.3782
8.92321
9.29109
9.29089
10.9351
8.94517
11.2838
9.30473
8.89871
9.29041
9.267
8.91982
8.90653
9.28963
9.27555
9.4189
9.79246
9.82854
9.43093
9.42537
9.84224
9.83201
9.42098
9.82937
9.83071
9.44036
11.4058
9.83442
11.7598
9.42125
9.83148
9.83098
11.4995
11.7322
11.8493
12.0631
9.4207
9.83105
9.8304
11.7305
11.4983
12.0618
11.8344
9.42016
9.83005
9.82989
11.4008
9.43314
11.7475
9.83415
9.39582
9.82935
9.80773
9.41998
9.40799
9.83246
9.8419
9.97289
10.4223
10.4335
9.99015
9.93231
10.4546
10.4853
9.97503
10.4335
10.4345
9.89907
13.2852
10.4626
12.7008
9.97527
10.4353
10.4345
13.3293
13.2757
12.77
12.9035
9.97469
10.4346
10.4341
13.2817
13.3238
12.8747
12.7599
9.97423
10.4337
10.4342
13.2673
9.90051
12.6841
10.4631
9.95139
10.4345
10.432
9.93259
9.99062
10.488
10.4551
10.5977
11.1313
11.1249
10.6191
10.57
11.1449
11.1716
10.5971
11.1223
11.1163
10.5464
12.6096
11.1672
11.8971
10.597
11.1168
11.1152
12.6802
12.9671
11.954
16.8195
10.5966
11.1153
11.1153
12.9274
12.6701
16.6746
11.9467
10.5976
11.1155
11.1232
12.5939
10.5468
11.8909
11.1674
10.6104
11.1262
11.1306
10.5703
10.6197
11.1715
11.1457
11.3124
11.917
11.9111
11.3319
11.2648
11.9297
11.9742
11.301
11.9091
11.8997
11.2611
11.8373
11.9756
11.9812
11.2993
11.8979
11.8935
11.8882
17.9344
11.9822
11.5657
11.2994
11.8937
11.8957
17.7888
11.8818
11.5973
11.9832
11.3102
11.8983
11.9096
11.832
11.2613
11.9823
11.9757
11.3183
11.9122
11.9159
11.2646
11.3327
11.9739
11.9307
12.1239
12.8268
12.8213
12.1407
12.0812
12.8313
12.8859
12.1134
12.8191
12.8041
12.0798
12.0324
12.8842
12.8924
12.1071
12.8024
12.7969
12.0352
11.9076
12.8939
12.9149
12.1096
12.7974
12.7999
11.9121
12.0363
12.915
12.8953
12.1223
12.8023
12.8196
12.0336
12.0796
12.8937
12.884
12.1303
12.8226
12.8255
12.0808
12.1417
12.8853
12.8325
13.0734
13.8837
13.8789
13.0803
13.0122
13.8854
13.9523
13.0566
13.8784
13.8733
13.0088
12.9537
13.9504
13.9816
13.0496
13.8721
13.8679
12.9551
12.9755
13.9821
13.9923
13.0518
13.8684
13.8689
12.9755
12.9566
13.9923
13.9843
13.0727
13.8714
13.8791
12.9549
13.0086
13.9826
13.9501
13.0757
13.8807
13.8822
13.0115
13.0816
13.9515
13.8869
14.1709
15.1399
15.1419
14.1768
14.0996
15.1335
15.2227
14.1683
15.1439
15.149
14.0935
14.0539
15.2241
15.2931
14.1644
15.1535
15.162
14.0543
14.0685
15.2931
15.3238
14.165
15.1621
15.1603
14.0686
14.0565
15.3237
15.2964
14.1709
15.1599
15.1477
14.0549
14.0935
15.2945
15.2259
14.1755
15.1449
15.1387
14.0986
14.1787
15.2251
15.1384
15.493
16.6439
16.6627
15.4801
15.404
16.6296
16.746
15.5084
16.6681
16.6761
15.4029
15.3851
16.7481
16.7893
15.5249
16.6798
16.6779
15.3856
15.4129
16.7907
16.8029
15.5233
16.6803
16.6748
15.4129
15.3887
16.8022
16.7949
15.5039
16.6731
16.669
15.3878
15.4065
16.7905
16.7477
15.4863
16.6631
16.6407
15.4004
15.4849
16.7451
16.6305
17.0844
18.4695
18.4865
17.0527
16.955
18.4321
18.6005
17.1016
18.499
18.5157
16.9522
17.0009
18.6173
18.6457
17.1028
18.519
18.5141
17.0019
17.0135
18.6458
18.5695
17.1002
18.5144
18.5145
17.0134
17.0063
18.5695
18.649
17.0902
18.5107
18.4962
17.0021
16.9628
18.6441
18.5997
17.0584
18.4867
18.4551
16.9576
17.0527
18.6001
18.4349
19.0136
20.7657
20.7736
18.9603
19.0132
20.7242
20.7658
19.0393
20.7825
20.7961
19.0185
19.0391
20.7723
20.6971
19.039
20.7866
20.7719
19.0192
18.9693
20.689
20.6888
19.0345
20.7713
20.78
18.9692
19.0201
20.6888
20.6892
19.0176
20.7818
20.7717
19.0253
19.0034
20.6967
20.7545
18.9792
20.768
20.7478
18.9978
18.9667
20.7427
20.7248
21.4336
23.6751
23.6632
21.37
21.4231
23.632
23.5848
21.4438
23.6454
23.5801
21.4132
21.3428
23.5778
23.5776
21.3989
23.58
23.58
21.3426
21.3425
23.5775
23.5775
21.4092
23.58
23.58
21.3425
21.3426
23.5775
23.5775
21.4232
23.5801
23.6479
21.3428
21.4051
23.5776
23.5778
21.4086
23.6701
23.6651
21.4078
21.3662
23.5843
23.6226
24.4979
26.9323
26.9205
24.4648
24.4323
26.915
26.9148
24.435
26.915
26.9149
24.4327
24.4327
26.9148
26.9148
24.4351
26.9149
26.9149
24.4326
24.4326
26.9148
26.9148
24.4352
26.9149
26.9149
24.4326
24.4326
26.9148
26.9148
24.4668
26.9149
26.915
24.4327
24.4327
26.9148
26.9148
24.5123
26.926
26.9331
24.4317
24.4589
26.9149
26.9154
8.15801
7.97756
8.19881
7.70055
8.04827
7.97447
8.12855
10.6001
8.35779
10.9954
8.10226
10.6288
8.17222
11.0184
10.5474
10.9823
10.9573
10.6901
15.3275
11.0963
16.6897
10.5729
10.9532
10.9689
15.2815
10.6859
16.6992
11.1
8.24457
10.9787
8.29049
10.6208
8.09052
11.0194
8.17142
7.66338
8.18294
7.94151
8.05079
7.70095
8.1304
7.97468
8.23478
8.37493
8.41188
8.07012
8.18018
8.37137
8.40088
11.14
8.55298
11.5859
8.21837
11.1579
8.4331
11.5857
11.0982
11.5596
11.5401
11.2413
17.2189
11.6907
19.0292
11.1095
11.5417
11.55
17.249
11.2448
19.1236
11.6929
8.32388
11.5589
8.48923
11.1589
8.22065
11.5859
8.43348
8.03642
8.40227
8.33619
8.1815
8.07031
8.40162
8.37147
8.49527
8.81357
8.79849
8.47686
8.49474
8.80978
8.81547
11.7255
8.88726
12.1641
8.52468
11.7322
8.83836
12.1641
11.7001
12.1545
12.2238
11.8466
19.6996
12.3163
21.9069
11.7026
12.216
12.161
19.8104
11.8485
22.0452
12.3173
8.56655
12.1632
8.85538
11.7322
8.52487
12.1636
8.83827
8.44056
8.79439
8.7807
8.49529
8.47694
8.81582
8.8098
8.91302
9.3004
9.28276
8.92664
8.93194
9.2965
9.30785
12.2842
9.33711
12.7009
8.95237
12.3078
9.31402
12.7149
12.4441
12.7204
13.4589
12.4753
22.7154
12.9371
25.4491
12.3197
13.3965
12.7599
22.8531
12.4759
25.5449
12.9366
8.96448
12.763
9.31795
12.3071
8.95226
12.7138
9.31448
8.9279
9.27949
9.29656
8.93226
8.92666
9.3077
9.29649
9.41379
9.84397
9.83815
9.42675
9.43952
9.84035
9.85202
12.8382
9.82978
13.2049
9.44724
12.8465
9.85611
13.1893
13.9561
13.2407
16.191
13.089
26.4886
13.5007
29.9659
12.9045
16.0581
13.2973
26.5562
13.0882
29.9207
13.4987
9.44174
13.2809
9.83234
12.8452
9.44784
13.1871
9.85616
9.42874
9.83399
9.84379
9.43945
9.42672
9.85193
9.84028
9.93392
10.455
10.4884
9.98649
9.96112
10.4521
10.5037
13.2749
10.4617
12.8366
9.96217
13.2971
10.5055
12.778
14.0117
12.874
21.064
13.43
31.2783
12.9727
36.9307
13.3068
20.6713
12.8973
31.3219
13.4267
36.8559
12.9703
9.89898
12.8886
10.4613
13.2953
9.96216
12.7771
10.5055
9.98976
10.4898
10.4547
9.96112
9.9864
10.5037
10.452
10.5683
11.1462
11.1709
10.6171
10.586
11.1443
11.2001
12.7379
11.1667
11.9632
10.5879
12.668
11.2024
11.918
22.758
12.0077
43.2715
12.8644
38.1308
12.0935
47.1941
12.8013
42.9004
12.0266
38.0211
12.8627
47.3122
12.0945
10.545
12.0073
11.1668
12.6674
10.5879
11.9191
11.2024
10.6195
11.1724
11.1459
10.586
10.617
11.2001
11.1442
11.264
11.9338
11.9749
11.3317
11.2935
11.9329
11.9933
11.8942
11.9809
11.9891
11.2958
11.8749
11.9956
12.267
46.9981
11.993
13.5456
12.0457
48.0096
12.3549
63.8475
11.9537
13.4993
11.9941
48.1728
12.0468
64.3801
12.3541
11.2607
11.9901
11.9818
11.8758
11.2958
12.2664
11.9957
11.3331
11.9768
11.9335
11.2935
11.3316
11.9933
11.9328
12.0812
12.8339
12.8862
12.1475
12.1003
12.8393
12.9064
12.0416
12.8839
12.8963
12.1027
12.3276
12.9088
13.1851
11.7059
12.8978
12.9401
12.4176
65.8526
13.2663
137.572
12.0463
12.94
12.8996
66.3655
12.4168
135.122
13.2676
12.0814
12.8977
12.8853
12.327
12.1028
13.1861
12.9089
12.1476
12.8887
12.8336
12.1004
12.1475
12.9065
12.8393
13.0131
13.8881
13.955
13.0875
13.0303
13.8921
13.9659
12.9575
13.9541
13.9808
13.0326
13.2451
13.9674
14.2065
12.9981
13.9826
14.0038
13.326
141.035
14.2983
229.521
12.9609
14.0038
13.9851
139.238
13.3275
225.076
14.3014
13.0102
13.9828
13.9562
13.2463
13.0327
14.2084
13.9675
13.0825
13.9584
13.8879
13.0303
13.0875
13.966
13.8921
14.1002
15.137
15.2186
14.1827
14.1104
15.1328
15.2143
14.0547
15.2186
15.2937
14.1116
14.2665
15.2139
15.2635
14.0793
15.2949
15.3249
14.3545
241.331
15.2675
15.5944
14.0587
15.3252
15.2983
237.024
14.3574
15.5943
15.2675
14.1001
15.2984
15.2254
14.2683
14.1117
15.2635
15.2139
14.1798
15.2276
15.1398
14.1105
14.1827
15.2143
15.1328
15.3941
16.6262
16.7426
15.4787
15.3869
16.6199
16.718
15.386
16.7413
16.7903
15.3864
15.3458
16.7174
16.7126
15.4128
16.7895
16.7976
15.3483
15.5585
16.7119
16.7085
15.3907
16.7973
16.7932
15.5587
15.3483
16.7085
16.7118
15.4007
16.7869
16.7488
15.3457
15.3864
16.7126
16.7174
15.4864
16.7483
16.6323
15.3869
15.4787
16.718
16.6199
16.9442
18.4336
18.5943
17.0387
16.9274
18.4331
18.5561
17.0019
18.6045
18.6297
16.9269
16.9227
18.5558
18.5541
17.0084
18.6142
18.5565
16.922
16.9191
18.5538
18.5529
17.0046
18.5565
18.6279
16.919
16.922
18.5529
18.5538
16.9642
18.6324
18.6003
16.9226
16.9269
18.5541
18.5558
17.0544
18.6023
18.4328
16.9274
17.0387
18.5561
18.4331
18.9809
20.6959
20.7183
18.95
18.9498
20.6907
20.6893
18.9972
20.7259
20.6891
18.9493
18.9481
20.689
20.6885
18.9483
20.6887
20.6886
18.9478
18.9471
20.6884
20.6881
18.9769
20.6886
20.6888
18.9471
18.9478
20.6881
20.6884
18.9965
20.689
20.7234
18.9481
18.9493
20.6885
20.689
18.9543
20.7157
20.7022
18.9498
18.95
20.6893
20.6907
21.3811
23.6001
23.5776
21.3442
21.3428
23.5791
23.5776
21.3425
23.5776
23.5775
21.3426
21.3422
23.5775
23.5774
21.3423
23.5775
23.5774
21.3421
21.3419
23.5773
23.5773
21.3424
23.5774
23.5775
21.3419
21.3421
23.5773
23.5773
21.37
23.5775
23.5776
21.3422
21.3426
23.5774
23.5775
21.349
23.5778
23.5892
21.3428
21.3442
23.5776
23.5791
24.4328
26.9149
26.9148
24.4342
24.4327
26.9149
26.9148
24.4326
26.9148
26.9148
24.4327
24.4325
26.9148
26.9147
24.4325
26.9147
26.9147
24.4325
24.4325
26.9147
26.9147
24.4326
26.9147
26.9147
24.4325
24.4325
26.9147
26.9147
24.4327
26.9148
26.9148
24.4325
24.4327
26.9147
26.9148
24.4347
26.9148
26.9149
24.4327
24.4342
26.9148
26.9149
8.0485
7.97651
8.1328
7.69769
8.10968
7.97197
8.16574
10.6336
8.18409
11.0376
8.30222
10.6266
8.35143
11.0379
16.7381
11.1191
18.3012
10.6269
10.5539
11.0255
10.9524
10.7036
18.1971
11.1191
10.5523
10.5886
10.9437
10.9846
8.09985
11.0368
8.18342
10.6014
8.31284
11.0092
8.35097
7.70279
8.13357
7.97651
8.12193
7.70576
8.17723
7.98033
8.18494
8.373
8.40731
8.06763
8.20746
8.36873
8.40203
11.1791
8.44554
11.613
8.38529
11.1793
8.53372
11.6162
18.8279
11.7161
20.4148
11.167
11.0905
11.6075
11.5322
11.2648
20.3261
11.7142
11.0869
11.1262
11.5294
11.5687
8.23294
11.6116
8.44601
11.151
8.38179
11.5815
8.54232
8.07205
8.40738
8.37289
8.21756
8.07608
8.40833
8.37749
8.50142
8.81098
8.82258
8.47408
8.48994
8.80651
8.8008
11.7621
8.84807
12.2046
8.61666
11.7691
8.87891
12.2036
20.9594
12.3488
22.6752
11.7786
11.7172
12.2226
12.2773
11.8702
22.6816
12.3419
11.7091
11.7226
12.241
12.205
8.53691
12.2025
8.84866
11.7379
8.61828
12.2129
8.88249
8.47822
8.82249
8.81073
8.49362
8.48296
8.80342
8.81576
8.93909
9.2975
9.30929
8.92318
8.91774
9.29243
9.28898
12.3523
9.3241
12.7735
8.99677
12.3681
9.33315
12.8236
23.298
12.9812
25.3637
12.3842
12.4873
12.8579
13.3003
12.502
25.5954
12.9682
12.4348
12.3647
13.1689
12.8317
8.96228
12.771
9.32437
12.3787
9.00006
12.8372
9.32934
8.92748
9.3092
9.2971
8.92015
8.93255
9.2978
9.30219
9.4394
9.84126
9.85185
9.42233
9.42873
9.83273
9.84552
12.9101
9.85835
13.2706
9.44906
12.9766
9.85039
13.3828
26.1616
13.5576
29.013
13.0101
13.6037
13.4152
14.5789
13.1218
29.4978
13.5406
13.4428
12.9817
14.3351
13.3794
9.45207
13.2628
9.85841
12.9935
9.46224
13.405
9.85131
9.42729
9.85179
9.84076
9.43116
9.43226
9.84565
9.84309
9.96135
10.4528
10.5038
9.97847
9.94934
10.4426
10.4907
13.3067
10.5058
12.8013
9.91762
13.4918
10.4845
13.1267
31.0109
13.0204
37.634
13.4863
13.111
13.1452
14.7503
13.443
37.729
13.003
13.067
13.4515
14.4012
13.0881
9.96208
12.8051
10.5057
13.5006
9.92032
13.1411
10.4847
9.98686
10.5038
10.4523
9.9492
9.98891
10.4898
10.4535
10.5862
11.1447
11.2002
10.6072
10.5727
11.133
11.1823
12.6918
11.2025
11.9349
10.5677
13.0389
11.1818
12.1909
39.3117
12.1477
50.8236
13.0577
15.4731
12.2255
24.5829
12.8979
50.9785
12.1362
15.0636
12.9961
24.0949
12.1613
10.5881
11.9376
11.2024
13.0469
10.5646
12.2049
11.1826
10.6173
11.2001
11.1443
10.5695
10.6182
11.1836
11.1446
11.2936
11.9329
11.9933
11.3201
11.275
11.9238
11.9772
11.8885
11.9957
12.2525
11.2747
12.1035
11.9772
11.994
51.8416
12.3374
63.8717
12.1363
24.1797
11.9953
11.9932
12.085
64.4733
12.3361
23.6973
12.0728
11.9939
11.9816
11.2959
12.2519
11.9957
12.1145
11.2759
11.9803
11.9782
11.3317
11.9933
11.9327
11.2768
11.3317
11.9784
11.934
12.1004
12.8391
12.9063
12.1373
12.0818
12.8316
12.8868
12.3122
12.9086
13.1689
12.0818
12.0456
12.8845
12.9057
65.7152
13.2451
133.46
12.0461
12.0464
12.9066
12.899
12.3975
132.448
13.246
12.0482
12.0336
12.899
12.9056
12.1028
13.1703
12.9087
12.0317
12.0826
12.9099
12.8843
12.1473
12.9064
12.839
12.0829
12.1483
12.8866
12.833
13.0301
13.8919
13.9658
13.0822
13.0104
13.8877
13.959
13.2301
13.9671
14.1997
13.0078
12.9675
13.9561
13.9884
138.017
14.2878
295.183
12.9695
12.9614
13.9919
13.9798
13.3079
293.035
14.29
12.9615
12.9681
13.9797
13.9882
13.0325
14.2011
13.9672
12.9675
13.0077
13.9874
13.9555
13.0872
13.9659
13.8918
13.0104
13.0823
13.9588
13.8879
14.1103
15.1327
15.2144
14.1792
14.1032
15.1372
15.2234
14.2616
15.2139
15.2634
14.1038
14.0608
15.2289
15.3053
15.2673
15.7545
14.0641
14.0574
15.3125
15.3091
14.3486
15.7549
15.2674
14.0574
14.0621
15.3092
15.3098
14.1115
15.2636
15.2139
14.0603
14.1034
15.3043
15.2313
14.1824
15.2145
15.1325
14.1031
14.1795
15.23
15.1376
15.387
16.6197
16.7181
15.4836
15.3979
16.6303
16.7496
15.3457
16.7174
16.7128
15.4063
15.3949
16.753
16.7758
15.5933
16.712
16.7087
15.4012
15.3953
16.7971
16.8005
15.3483
16.7087
16.712
15.3954
15.3986
16.8005
16.7967
15.3864
16.7128
16.7174
15.394
15.4045
16.7734
16.7528
15.4784
16.7182
16.6195
15.4033
15.4838
16.7496
16.6306
16.9276
18.4329
18.5563
17.0508
16.9641
18.4375
18.6076
16.9228
18.5558
18.5542
16.969
16.9876
18.6086
18.6165
16.9192
18.5539
18.553
17.0093
17.0123
18.5761
18.5563
16.9221
18.553
18.5539
17.0124
17.0096
18.5564
18.5833
16.9269
18.5542
18.5558
16.9848
16.9688
18.6176
18.6084
17.0383
18.5563
18.4326
16.9629
17.0514
18.6075
18.4381
18.9498
20.6904
20.6893
18.975
19.0024
20.7254
20.706
18.9482
20.6891
20.6885
19.0046
18.9718
20.6962
20.689
18.9472
20.6884
20.6881
18.949
18.9485
20.6889
20.6887
18.9478
20.6881
20.6884
18.9485
18.9558
20.6887
20.6889
18.9494
20.6885
20.6891
18.9728
19.004
20.689
20.6958
18.9494
20.6893
20.6901
19.002
18.9687
20.7054
20.7315
21.3428
23.5787
23.5776
21.3622
21.3443
23.581
23.6002
21.3422
23.5775
23.5774
21.3434
21.3426
23.5872
23.5775
21.3419
23.5773
23.5773
21.3425
21.3424
23.5775
23.5774
21.3421
23.5773
23.5773
21.3424
21.3425
23.5774
23.5775
21.3426
23.5774
23.5775
21.3426
21.3433
23.5775
23.5871
21.3435
23.5776
23.5782
21.344
21.3647
23.6109
23.5786
24.4327
26.9149
26.9148
24.4434
24.4344
26.9181
26.9148
24.4325
26.9148
26.9147
24.4329
24.4326
26.9148
26.9148
24.4325
26.9147
26.9147
24.4326
24.4326
26.9148
26.9147
24.4325
26.9147
26.9147
24.4326
24.4326
26.9147
26.9148
24.4327
26.9147
26.9148
24.4326
24.4329
26.9148
26.9148
24.4333
26.9148
26.9149
24.443
24.441
26.9149
26.9223
8.17407
7.97528
8.21754
7.67523
7.6996
7.95348
7.97321
9.74332
8.32252
10.0334
7.69944
7.70128
7.97322
7.97515
9.84095
10.0398
10.1304
7.70139
7.70142
7.97534
7.97529
9.74661
10.131
10.0068
7.70141
7.70133
7.97529
7.97513
8.28741
9.97438
8.32208
7.7013
7.69992
7.97494
7.97316
7.70174
8.23339
7.9808
7.69985
7.68026
7.97286
7.95674
8.25286
8.3733
8.4283
8.04763
8.06856
8.34884
8.36866
10.1528
8.5229
10.4749
8.0686
8.07058
8.36874
8.37078
10.2397
10.5069
10.5846
8.0708
8.07076
8.37109
8.37111
10.1062
10.5867
10.4324
8.07076
8.0706
8.37111
8.37092
8.35321
10.3915
8.51096
8.07038
8.0685
8.37065
8.36857
8.07673
8.43191
8.37835
8.06813
8.05114
8.36799
8.35084
8.51116
8.81172
8.81042
8.45303
8.47364
8.78697
8.80484
10.5784
8.8689
10.9067
8.47374
8.47581
8.80503
8.80724
10.7211
10.9527
11.1084
8.47614
8.47618
8.80762
8.80772
10.5614
11.1145
10.9427
8.47619
8.47599
8.80773
8.80751
8.58598
10.8929
8.86302
8.47572
8.47357
8.80722
8.80485
8.48378
8.81167
8.81632
8.47294
8.45538
8.80408
8.78919
8.92659
9.29649
9.2912
8.90248
8.92094
9.27282
9.28827
11.0345
9.33163
11.4303
8.92123
8.92353
9.28863
9.29139
11.2569
11.4928
11.6552
8.92392
8.92403
9.29182
9.292
11.0696
11.6663
11.4933
8.92405
8.92383
9.29202
9.29178
8.97848
11.4219
9.32987
8.92353
8.92107
9.29145
9.28865
8.9318
9.29792
9.30017
8.92021
8.90479
9.28774
9.2824
9.42975
9.83339
9.84817
9.40726
9.41748
9.81838
9.82731
11.5963
9.85343
11.9133
9.4178
9.42071
9.8275
9.83069
11.7669
11.9582
12.0942
9.42117
9.4214
9.83123
9.83162
11.6399
12.1023
11.9481
9.42142
9.42115
9.83163
9.8313
9.46318
11.9112
9.85509
9.4208
9.41795
9.83087
9.82813
9.4293
9.84621
9.83746
9.41709
9.40961
9.82696
9.82199
9.95221
10.4417
10.4905
9.96559
9.9719
10.4314
10.432
13.3483
10.4851
12.8228
9.97185
9.97508
10.4321
10.4348
13.3155
12.8822
12.6319
9.97564
9.97606
10.4353
10.4357
13.3358
12.6647
12.8272
9.97607
9.97575
10.4357
10.4356
9.92446
12.8272
10.4828
9.97537
9.97284
10.4354
10.4332
9.98272
10.4827
10.4472
9.97171
9.96625
10.4329
10.4321
10.5724
11.1326
11.1819
10.5906
10.597
11.1172
11.1245
12.7361
11.1816
11.997
10.5952
10.5976
11.1199
11.1177
12.5136
12.0477
11.9843
10.598
10.5981
11.1178
11.1174
12.7446
11.9101
12.0408
10.5982
10.5983
11.1174
11.1178
10.5625
12.0626
11.1828
10.5981
10.5964
11.1177
11.1203
10.6117
11.1833
11.1392
10.5966
10.6006
11.1218
11.1326
11.2747
11.9256
11.9741
11.3043
11.3095
11.9088
11.9095
11.9231
11.9728
11.9767
11.3082
11.3031
11.9089
11.9026
11.8431
11.9784
11.9812
11.3033
11.3026
11.9011
11.8989
11.9568
11.981
11.9786
11.3026
11.3029
11.8989
11.8995
11.2761
11.978
11.9745
11.3029
11.3069
11.9006
11.9083
11.3267
11.9755
11.9294
11.3083
11.3193
11.9103
11.9228
12.0817
12.8315
12.8866
12.1246
12.1227
12.8263
12.8209
12.0305
12.8855
12.9033
12.1225
12.1168
12.8205
12.8142
12.0343
12.9045
12.8935
12.1142
12.1123
12.811
12.8032
12.0318
12.8934
12.902
12.1122
12.112
12.8032
12.8117
12.0816
12.9018
12.8858
12.1145
12.1232
12.8151
12.8205
12.1434
12.8862
12.8327
12.1258
12.1353
12.8205
12.8263
13.0104
13.8866
13.9572
13.0757
13.0725
13.8826
13.8779
12.9651
13.9549
13.9875
13.0719
13.0666
13.8776
13.8762
12.9569
13.9901