/*--------------------------------*- C++ -*----------------------------------*\
| =========                 |                                                 |
| \\      /  F ield         | OpenFOAM: The Open Source CFD Toolbox           |
|  \\    /   O peration     | Version:  2206                                  |
|   \\  /    A nd           | Website:  www.openfoam.com                      |
|    \\/     M anipulation  |                                                 |
\*---------------------------------------------------------------------------*/
FoamFile
{
    version     2.0;
    format      ascii;
    arch        "LSB;label=32;scalar=64";
    class       volScalarField;
    location    "400";
    object      p;
}
// * * * * * * * * * * * * * * * * * * * * * * * * * * * * * * * * * * * * * //

dimensions      [0 2 -2 0 0 0 0];

internalField   nonuniform List<scalar> 
187974
(
-0.0357017
-0.0152016
-0.0274528
-0.0429619
-0.0429114
-0.0266933
-0.0138355
-0.0359685
-0.0563145
-0.051572
-0.0651097
-0.0585412
-0.0579475
-0.0618175
-0.0477866
-0.0585356
-0.0191082
-0.0132108
-0.0252971
-0.0272366
-0.027182
-0.0247129
-0.0128125
-0.0200378
-0.00734986
0.00335444
-0.0114592
-0.0123269
-0.0125529
-0.0116337
0.00290473
-0.00819369
-0.00457869
0.0197959
0.0019383
0.0061629
0.00579063
0.00145768
0.0189988
-0.0050531
-0.0142322
0.0315606
0.0105127
0.0233373
0.023002
0.0102558
0.0306666
-0.014881
-0.0391173
0.0359416
0.0114333
0.035137
0.0353314
0.0124264
0.0363596
-0.0376415
-0.0877299
0.015514
-0.0148477
0.0180001
0.0188915
-0.0128744
0.0174871
-0.0834487
-0.157632
-0.045186
-0.0946275
-0.065236
-0.0643993
-0.0930472
-0.042877
-0.15387
-0.230457
-0.122584
-0.183748
-0.153352
-0.153461
-0.183419
-0.122718
-0.230099
-0.291407
-0.21518
-0.257503
-0.210371
-0.211436
-0.26024
-0.216157
-0.294104
-0.320246
-0.362215
-0.442308
-0.466404
-0.467054
-0.444454
-0.363991
-0.324232
-0.223809
-0.400536
-0.50075
-0.603201
-0.603676
-0.500726
-0.401487
-0.22964
0.00973678
-0.192805
-0.181912
-0.242803
-0.244049
-0.181851
-0.192558
0.00827895
0.253729
0.104464
0.239912
0.238994
0.238596
0.238073
0.100786
0.256836
0.403675
0.304549
0.495123
0.520803
0.519925
0.494322
0.302048
0.404705
0.442364
0.382766
0.571879
0.602187
0.601993
0.571259
0.381701
0.444708
0.414441
0.387422
0.547642
0.579488
0.579413
0.547984
0.387777
0.415778
0.341415
0.354696
0.477376
0.512362
0.512338
0.477379
0.354622
0.342083
0.232907
0.304329
0.393243
0.429903
0.429904
0.393316
0.304398
0.233161
-0.0306036
0.0166642
-0.0615318
-0.0499519
-0.0510658
-0.0589332
0.0159887
-0.0281145
-0.0788131
0.066383
0.0913519
0.192462
0.189388
0.0838883
0.0584065
-0.0740919
-0.0370397
-0.0310004
-0.0147941
0.00678615
0.0192627
0.0123655
0.0114494
-0.0120915
-0.0263959
-0.0125835
0.00930375
0.0293952
0.0391531
0.0357273
0.025028
0.012358
-0.0291725
-0.0129493
0.0115203
0.0320114
0.0438266
0.0431636
0.0343048
0.0222612
-0.0445555
-0.0210757
0.00702397
0.0297694
0.0438265
0.0463047
0.0413372
0.0312973
-0.0742724
-0.0394902
-0.00486433
0.0226382
0.0393516
0.0429642
0.0406965
0.0352586
-0.123218
-0.0771826
-0.0361076
-0.00317679
0.0173519
0.0190171
0.0233641
0.0345754
-0.201488
-0.139967
-0.101067
-0.0796352
-0.062004
-0.0489781
-0.0238614
0.013212
-0.318565
-0.229629
-0.179232
-0.15805
-0.144901
-0.131971
-0.102308
-0.0431478
-0.415743
-0.316633
-0.237954
-0.157198
-0.125809
-0.176456
-0.195148
-0.120774
-0.492362
-0.448428
-0.412205
-0.308653
-0.263301
-0.366415
-0.396568
-0.258595
-0.4651
-0.590962
-0.773584
-0.884852
-0.909322
-0.862144
-0.703805
-0.423517
-0.215056
-0.465342
-0.731672
-0.944768
-1.00434
-0.883207
-0.667152
-0.400097
0.164605
0.00855583
-0.0553323
-0.0352703
-0.0244402
-0.0791948
-0.130136
-0.131112
0.437245
0.402424
0.497583
0.626193
0.657253
0.536464
0.338611
0.141378
0.52536
0.548536
0.674636
0.798031
0.826317
0.723404
0.522173
0.271928
0.494219
0.528346
0.643059
0.736828
0.758114
0.685065
0.527278
0.29799
0.425865
0.439153
0.549358
0.626016
0.644143
0.591722
0.474719
0.284787
0.30529
0.432529
0.556894
0.617041
0.616996
0.556872
0.432425
0.30523
-0.0577687
0.00449351
0.0700439
-0.228079
-0.22797
0.0724833
0.00603522
-0.0516345
-0.245934
0.107066
0.250289
0.278589
0.190842
0.171364
0.0738757
-0.240307
-0.0533585
-0.104954
-0.0235516
-0.213202
-0.389291
-0.0987736
0.111441
0.122799
-0.0328266
-0.0181567
0.0278605
0.0550713
0.0670652
0.0765885
0.0536716
0.0340255
-0.0274655
-0.0100754
0.0393774
0.078373
0.099071
0.0994732
0.0740664
0.0416498
-0.0335742
-0.000544287
0.0578448
0.100324
0.123704
0.127794
0.100695
0.06523
-0.0649436
0.00536722
0.0859066
0.137018
0.167007
0.168482
0.128826
0.0823078
-0.129875
0.000270283
0.108498
0.189517
0.240703
0.210522
0.144935
0.130667
-0.241539
-0.0479973
0.0427038
0.1023
0.155707
0.11605
0.0748361
0.0912658
-0.449688
-0.208552
-0.138088
-0.18571
-0.204508
-0.144648
-0.0977645
-0.0366714
-0.670325
-0.374638
-0.205664
-0.0410171
0.0518576
-0.0671124
-0.228589
-0.194993
-0.929118
-0.646294
-0.420948
0.354688
0.98956
0.103179
-0.528188
-0.511716
-1.04878
-1.16049
-1.59438
-1.69713
-1.57999
-1.72535
-1.53228
-0.999703
-0.617453
-1.18742
-2.07905
-3.10047
-3.54734
-2.8692
-1.86986
-0.997578
0.219349
-0.229779
-0.356481
-0.118273
0.110948
-0.158898
-0.379729
-0.270676
0.7716
0.64651
1.05946
1.70287
1.99722
1.54946
0.892264
0.351303
0.910576
0.897833
1.29089
1.7342
1.88828
1.62387
1.14545
0.563995
0.772166
0.800662
1.07441
1.33582
1.41867
1.27897
0.98447
0.523492
0.650744
0.636061
0.844122
1.01044
1.06082
0.980608
0.787911
0.446903
0.423351
0.568874
0.729087
0.838444
0.862085
0.795319
0.657415
0.423002
-0.0868332
-0.0744126
-0.123919
0.955212
0.962885
-0.113515
-0.0719131
-0.0850349
-0.307839
0.187154
0.483701
0.666008
0.18928
-0.368995
-0.0986563
-0.30098
-0.0847234
-0.122842
0.13859
0.488115
-1.22567
0.0410937
-0.0496979
0.10625
-0.0350795
0.016144
0.121328
0.243049
0.322678
0.222349
0.102392
0.0605432
-0.0243872
0.0375096
0.0895363
0.182745
0.238527
0.209575
0.145208
0.101233
-0.0289661
0.0561109
0.113036
0.190807
0.298186
0.269452
0.20102
0.168397
-0.0536416
0.0787811
0.177859
0.279959
0.395538
0.404895
0.27617
0.207801
-0.115525
0.0986408
0.293351
0.449003
0.698681
0.675997
0.383986
0.278519
-0.254871
0.0657831
0.398329
1.03551
5.55131
0.9713
0.400686
0.25202
-0.538721
-0.161665
0.100333
0.297032
1.41872
0.343309
0.105825
0.0341646
-0.922205
-0.45656
-0.0924539
-0.865745
-7.36017
-0.514356
-0.123381
-0.244062
-1.44728
-1.00212
-0.184285
4.16037
22.2525
3.51067
-0.415732
-0.780308
-1.90733
-2.38924
-3.32179
-1.96905
6.5329
-2.2278
-3.2622
-1.92577
-1.29444
-2.87434
-6.61913
-15.0924
-25.048
-14.3037
-5.96513
-2.098
0.256269
-0.489149
-0.699259
2.39714
9.01169
2.04232
-0.818209
-0.431247
1.16309
1.27126
2.75894
6.1926
8.60982
5.73348
2.37808
0.670517
1.2599
1.47772
2.48699
3.79956
4.38818
3.42718
2.11824
0.881904
1.02181
1.17294
1.66937
2.17951
2.35452
2.06804
1.49629
0.737942
0.800293
0.856046
1.14706
1.39086
1.46783
1.3424
1.06546
0.582875
0.493419
0.688598
0.883975
1.02171
1.05155
0.966131
0.79183
0.493254
0.0218718
-0.0106639
0.285922
-0.137008
-0.147283
0.304572
-0.0020836
0.02568
-0.183693
0.0944385
0.212568
-0.454163
-1.16569
-0.691845
-0.125647
-0.17536
-0.0603401
-0.0615008
0.126044
-0.0392688
-0.430112
0.391794
0.044306
0.116907
-0.0242232
0.0337739
0.0955897
0.0563284
-0.423956
0.171193
0.140179
0.0925218
-0.0235943
0.0519834
0.0706349
0.0501609
0.0707592
0.217927
0.190581
0.127253
-0.0338506
0.069385
0.102134
0.126137
0.169735
0.344629
0.274075
0.180864
-0.058885
0.0959322
0.172428
0.263907
0.585724
0.592107
0.388591
0.243928
-0.122818
0.12062
0.324075
0.511085
1.36415
1.06121
0.518786
0.314726
-0.268293
0.0915095
0.489836
1.49839
-15.5259
1.07065
0.463765
0.291247
-0.565422
-0.167108
0.152795
1.44522
9.11978
1.12402
0.143404
0.0408624
-0.969559
-0.502759
-0.233438
-1.52605
-3.25055
-1.02034
-0.277321
-0.24752
-1.55676
-1.15845
-0.292222
3.37761
18.3225
2.91364
-0.544638
-0.853356
-2.13362
-3.04463
-4.81481
0.767596
26.3857
-0.500574
-4.61749
-2.22698
-1.50597
-3.92042
-12.1225
-65.7111
-58.6532
-10.2919
-2.44099
0.231216
-0.619077
-0.61476
17.9228
168.611
14.4109
-0.929891
-0.475823
1.233
1.60225
4.13828
11.984
18.7704
10.6873
3.54094
0.786632
1.31358
1.70737
3.02027
4.81368
5.58105
4.37574
2.55838
0.95804
1.06373
1.28873
1.88235
2.48172
2.69468
2.34767
1.68004
0.781127
0.824712
0.919698
1.23748
1.50967
1.59622
1.45533
1.14733
0.609526
0.487321
0.710615
0.911579
1.05429
1.08519
0.995896
0.812459
0.487116
-0.0395665
-0.0228216
-0.0574387
-0.00716661
0.0106319
-0.0559442
-0.0137715
-0.0385965
-0.142776
0.0204139
-0.020437
-0.183656
-0.173942
-0.199297
-0.064158
-0.135786
-0.0451419
-0.116088
0.0574673
0.0313716
0.110961
0.112093
0.0184789
0.0982294
-0.00652155
0.0339619
0.0543501
0.038084
0.0947535
0.0888666
0.0944028
0.082572
-0.0151329
0.04603
0.0747318
0.103116
0.134581
0.160831
0.1416
0.0903253
-0.0326408
0.0516462
0.104624
0.104052
0.148167
0.232195
0.187332
0.119876
-0.0692121
0.0430538
0.129062
0.150523
0.22052
0.302164
0.249981
0.154482
-0.139858
0.0559862
0.200855
0.286134
0.450898
0.459396
0.296426
0.189902
-0.283116
-0.0436224
0.0974078
0.268028
1.26053
0.227083
0.112169
0.108468
-0.497596
-0.266266
-0.252595
-0.69925
-1.08631
-0.601006
-0.178656
-0.07751
-0.767896
-0.476586
-0.327117
-0.538352
-1.05498
-0.560618
-0.368872
-0.260993
-1.10309
-0.895317
-0.495092
1.24922
2.33098
0.685221
-0.66009
-0.649208
-1.35413
-1.90867
-2.91734
-2.90825
-0.864657
-3.1142
-2.84038
-1.36001
-0.863691
-2.12915
-4.72305
-10.419
-14.7922
-9.97814
-4.38504
-1.38452
0.214686
-0.41873
-0.868876
0.0951108
2.2321
-0.0777899
-0.904384
-0.380012
0.90767
1.0077
1.99773
4.14908
5.53812
3.85309
1.75644
0.464979
1.01606
1.2418
1.95578
2.81566
3.21732
2.57829
1.68487
0.653274
0.874442
1.0309
1.44293
1.84321
1.98163
1.75236
1.28875
0.606721
0.703427
0.781089
1.03385
1.24613
1.31207
1.20402
0.956674
0.509579
0.409352
0.614446
0.783606
0.900666
0.924873
0.849983
0.694241
0.409187
-0.0106458
0.012333
-0.0289345
0.00878948
0.0088708
-0.0261051
0.0115191
-0.00844503
-0.0438691
0.0300899
0.0625969
0.137678
0.143583
0.079475
0.0374779
-0.039358
0.0116524
-0.00506239
0.00799387
0.00892545
0.0222885
0.0152419
0.026478
0.0230134
0.025276
0.0414968
0.0641366
0.0822236
0.0775242
0.0773834
0.0653604
0.0369433
0.0243242
0.0523384
0.0912824
0.113218
0.11912
0.116819
0.0940054
0.0531523
0.00447514
0.0601903
0.105211
0.13885
0.149907
0.145368
0.112746
0.0617715
-0.0423513
0.0317596
0.0978295
0.143832
0.15968
0.155525
0.117656
0.0694233
-0.109873
-0.0182095
0.0586863
0.120285
0.144579
0.13245
0.0904454
0.0516176
-0.21938
-0.134858
-0.0793308
-0.0522005
-0.0392466
-0.0249148
-0.014731
0.000877445
-0.354178
-0.284549
-0.298362
-0.392536
-0.431547
-0.305803
-0.188171
-0.0926563
-0.486562
-0.393962
-0.321759
-0.211763
-0.161806
-0.264118
-0.291051
-0.184995
-0.61549
-0.580804
-0.563522
-0.429318
-0.381204
-0.529776
-0.561512
-0.35459
-0.626919
-0.82018
-1.14095
-1.36938
-1.42417
-1.31397
-1.00908
-0.57686
-0.314345
-0.64811
-1.08796
-1.45595
-1.56157
-1.33421
-0.95751
-0.546258
0.201234
-0.000795817
-0.0761974
-0.0389085
-0.0225216
-0.107169
-0.175987
-0.155792
0.550619
0.528413
0.69162
0.902151
0.95387
0.766418
0.478679
0.209789
0.65371
0.712131
0.910892
1.08879
1.1266
0.979265
0.697456
0.370721
0.60835
0.6608
0.82038
0.950173
0.976696
0.878172
0.665531
0.379049
0.511363
0.543383
0.683635
0.78529
0.808633
0.740553
0.590479
0.357528
0.289328
0.407194
0.522824
0.578288
0.5783
0.522892
0.407397
0.289447
-0.00294404
-0.0042505
-0.0024372
-0.000643009
-0.00128309
-0.00365622
-0.00522163
-0.00286484
0.00417327
-0.0204463
-0.0183098
-0.0210982
-0.0262842
-0.0288483
-0.0294466
0.00381453
0.0287137
0.0241986
0.0344043
0.0367177
0.0359234
0.0344492
0.0244911
0.0320932
0.0345126
0.0433556
0.0585015
0.0707726
0.0717833
0.0635751
0.049369
0.0405617
0.0272976
0.060022
0.0727789
0.0927388
0.0943561
0.0775487
0.0647661
0.0338061
0.00140937
0.0561999
0.0586992
0.0863717
0.0888741
0.0653958
0.0611966
0.00801978
-0.0434402
0.0307685
0.0196818
0.0513305
0.0541226
0.0263741
0.0366713
-0.0362438
-0.106671
-0.0257232
-0.0619562
-0.0377102
-0.0356579
-0.0563044
-0.0198381
-0.101212
-0.174289
-0.102212
-0.172019
-0.169478
-0.167892
-0.167883
-0.0985807
-0.173252
-0.225795
-0.160014
-0.229121
-0.221829
-0.222514
-0.229284
-0.160255
-0.229082
-0.26634
-0.228349
-0.277675
-0.260654
-0.26313
-0.280891
-0.232065
-0.270783
-0.279442
-0.333028
-0.403695
-0.440435
-0.443433
-0.408824
-0.338012
-0.283852
-0.188149
-0.349391
-0.421394
-0.512556
-0.514927
-0.425922
-0.354566
-0.191932
0.0190744
-0.170428
-0.15679
-0.222123
-0.223591
-0.159749
-0.174113
0.0160143
0.235743
0.0796715
0.198679
0.185512
0.184724
0.197692
0.078052
0.234681
0.369074
0.262205
0.430261
0.443172
0.442781
0.43045
0.262023
0.371351
0.407296
0.341025
0.510596
0.531731
0.531561
0.511012
0.341196
0.408504
0.385425
0.354065
0.501052
0.527373
0.527399
0.50214
0.355455
0.387974
0.320014
0.328754
0.441968
0.472901
0.472812
0.442149
0.329197
0.320695
0.218668
0.283408
0.36547
0.398854
0.398858
0.365578
0.283484
0.21895
0.0559982
-0.0126451
0.0671649
-0.0323172
0.00329395
-0.00351779
0.067258
0.0808112
0.0333715
0.0946434
-0.0211344
-0.0402152
0.028181
0.0796104
0.0743075
0.0697
0.0986919
-0.0529627
-0.0592626
0.0541586
0.0865831
0.0642835
0.0897885
0.0798614
-0.0486119
-0.0618476
0.0848396
0.0571652
0.0337981
0.0904152
0.042453
-0.0422015
-0.0183793
0.07844
0.0270377
-0.0128913
0.0674215
-0.00369349
0.00494808
-0.031589
0.0612359
-0.00559156
0.0729174
-0.00742973
0.0863347
0.00572382
0.0801071
-0.0103955
0.114605
0.103165
0.0475339
0.115737
0.0401597
0.109701
0.0681992
0.139389
0.108235
0.0879114
0.120296
0.0784277
0.0866555
0.116437
0.134619
0.0891571
0.111138
0.100145
0.0924868
0.0673676
0.131354
0.105576
0.0492708
0.114145
0.0593742
0.089163
0.0355582
0.130299
0.0634495
-0.000958977
0.090617
0.00316522
0.0722106
0.00187131
0.105646
0.00549322
0.0954411
-0.000565505
0.111797
0.0335117
0.136764
0.042284
0.18816
0.128215
0.0719528
0.147676
0.0839382
0.149592
0.132494
0.21645
0.1325
0.118838
0.156237
0.138807
0.150023
0.204059
0.244263
0.113357
0.14805
0.133255
0.148511
0.110913
0.239497
0.21532
0.0701851
0.150057
0.0831558
0.1426
0.0763638
0.228721
0.125269
0.00951024
0.117492
0.00416531
0.120832
0.0283271
0.172162
0.0315995
0.122225
-0.00318864
0.130573
0.0538888
0.210218
0.0662455
0.281425
0.164712
0.0981419
0.187555
0.159274
0.27482
0.237933
0.414085
0.174686
0.170325
0.223125
0.266488
0.303669
0.432689
0.567781
0.151756
0.216698
0.185281
0.296385
0.24905
0.545107
0.419375
0.0976789
0.195182
0.109705
0.252014
0.147624
0.388037
0.225609
0.0114795
0.138185
-0.0021749
0.194579
0.0459734
0.264522
0.0369341
0.135103
-0.0463571
0.0879867
0.075937
0.3084
0.0369311
0.315872
0.200837
0.0673008
0.145797
0.266968
0.466044
0.253404
0.470425
0.246306
0.149392
0.221988
0.492719
0.70665
0.52485
1.56735
0.20482
0.219501
0.161056
0.675999
0.483017
1.35001
0.515156
0.121507
0.157167
0.0806593
0.442827
0.254063
0.459263
0.26053
0.0123446
0.0997209
-0.035521
0.291659
0.0788428
0.321415
0.0453189
0.0616619
-0.18678
-0.0572721
0.0234513
0.299396
-0.14153
0.156319
0.103279
-0.0859549
-0.0743997
0.303457
0.441823
0.162442
0.44189
0.155008
-0.0931376
-0.0875398
0.498663
1.54887
0.427804
0.634169
0.114129
-0.0861395
-0.0844511
1.51868
0.506835
0.598259
0.422429
0.0574667
-0.0645342
-0.0735612
0.45285
0.314322
0.441241
0.170051
-0.0382862
-0.046428
-0.18097
0.311551
0.0395013
0.154317
-0.133732
-0.106341
-0.334115
-0.195446
-0.194474
0.097372
-0.411655
-0.102851
-0.153245
-0.201666
-0.148062
0.116683
0.335151
-0.0980137
-0.226348
-0.205448
-0.165445
-0.165116
0.305761
0.428318
-0.406241
-2.33957
-0.17813
-0.165153
-0.164544
0.387923
0.298851
-2.39278
-0.429406
-0.127519
-0.147823
-0.201001
0.333203
0.11986
-0.245926
-0.112439
-0.198892
-0.196265
-0.345949
0.0975015
-0.186768
-0.117202
-0.421699
-0.224708
-0.545507
-0.360143
-0.460934
-0.0974208
-0.767549
-0.223055
-0.0615748
-0.275787
0.243605
-0.0795307
-0.029601
-0.0878379
3.41634
0.0528473
0.458224
1.09248
-0.188709
-2.1923
4.02828
22.9938
-0.043937
1.08952
0.447805
-2.22912
-0.200781
22.3454
3.94761
-0.209551
0.23653
-0.286383
-0.0545755
-0.0988382
3.35466
-0.127805
-0.381722
-0.371367
-0.55622
-0.117855
-0.470083
-0.256941
-0.784804
-0.515858
-0.97503
-1.1969
-0.936113
-0.345875
-1.72746
-2.43667
0.116189
-1.20728
-1.08903
-0.197078
3.38092
-2.49033
-1.64939
0.99381
-0.993975
-0.711806
4.0066
19.1663
-1.3995
4.96534
0.340408
-0.715397
-1.00373
19.4237
3.93592
4.96493
-1.39792
-0.43304
-1.09928
-1.21765
3.34007
-0.243961
-1.64919
-2.5094
-0.656453
-1.20895
-0.983872
-0.376584
-0.952173
-2.45317
-1.74085
-1.52143
-1.17523
-1.89154
-2.08778
-2.88992
-2.4341
-5.16198
-1.71536
-2.09071
-2.84273
-2.99098
-2.21598
-5.72032
-12.518
-1.57403
-3.06614
-3.47456
-1.9865
4.36269
-13.2868
-20.7406
-1.70588
-3.47689
-3.07536
4.36933
-1.98281
-20.7515
-13.3347
-1.60523
-2.85301
-2.09711
-2.21088
-3.0144
-12.5627
-5.7384
-1.16902
-1.89899
-1.18282
-2.91005
-2.09948
-5.18082
-2.44165
-1.86536
-0.463492
-0.791512
-2.38489
-5.05106
-0.903463
-1.41301
-2.85598
-0.835898
-0.920174
-5.53589
-12.597
-1.4588
0.54712
-3.54085
-0.932025
-0.851336
-13.3766
-21.0922
0.842204
5.74685
-3.11439
-0.858143
-0.905303
-21.1065
-13.4338
5.7476
0.801292
-2.08404
-0.892544
-0.833367
-12.6507
-5.55807
0.586238
-1.42465
-1.18923
-0.79179
-0.454789
-5.06245
-2.39454
-1.43952
-0.905161
-0.380375
0.473325
0.674109
-0.39037
-0.760936
0.89793
1.98021
-0.192656
0.804877
1.27286
-0.693772
1.40833
2.28745
5.01106
0.117859
1.41848
1.72666
1.81857
6.90209
5.48487
7.73737
-0.0888497
1.73096
1.41539
6.89852
1.7788
7.74281
5.47847
-0.349167
1.27462
0.804356
1.45084
-0.672323
4.99898
2.27534
-0.232045
0.664399
0.467645
-0.775431
-0.397226
1.97442
0.883343
0.897481
0.825615
1.10146
1.14228
2.12599
1.34676
2.15964
1.54633
1.24943
1.63336
2.44964
4.88677
2.31196
3.44625
1.9949
1.74524
1.92844
5.3011
7.22062
3.59564
4.46308
1.69471
1.92175
1.72373
7.22561
5.29761
4.46241
3.60701
1.05792
1.62222
1.24685
4.87622
2.41573
3.45936
2.31475
0.643622
1.09681
0.832475
2.11244
1.14078
2.17152
1.33808
1.14656
0.809078
1.00615
1.34799
1.85516
1.1434
1.47132
1.63456
1.11021
1.32902
2.15087
2.90677
1.65847
2.10806
1.89035
1.39775
1.50382
3.18597
3.67889
2.23999
2.42727
1.72382
1.50202
1.39469
3.67372
3.18727
2.42684
2.23646
1.29006
1.33364
1.11425
2.93359
2.16836
2.10758
1.66818
0.893029
1.00807
0.808793
1.86342
1.34016
1.48233
1.13815
0.981918
0.656945
0.810608
1.08714
1.35867
0.857488
1.07661
1.27758
0.877261
1.02539
1.52115
1.88496
1.17509
1.37879
1.41926
1.05913
1.11345
1.9857
2.13502
1.43356
1.5154
1.33272
1.1134
1.05857
2.13486
1.98412
1.51536
1.43333
1.08078
1.0251
0.877638
1.8851
1.5263
1.37856
1.1751
0.801347
0.810202
0.657653
1.36315
1.08764
1.07554
0.855766
0.788096
0.558609
0.679541
0.814575
1.00512
0.64601
0.772205
0.980605
0.767663
0.844517
1.08315
1.2634
0.887171
0.970708
1.06085
0.892381
0.919924
1.30863
1.37901
1.03349
1.0642
1.01021
0.919912
0.892409
1.37899
1.30849
1.06418
1.03347
0.844729
0.844494
0.768192
1.26327
1.08316
0.970646
0.887184
0.638872
0.678829
0.558304
1.00468
0.81571
0.772064
0.64664
0.114615
0.0277466
0.138491
-0.00586239
0.0563394
0.00318417
0.0880986
0.230233
0.0890121
0.223021
0.0455923
0.0798638
0.0254471
0.0789672
0.324141
0.170818
0.265575
0.0196943
-0.0452384
0.0492916
0.0191544
0.250884
0.246798
0.183396
-0.0218885
-0.0505685
0.00023931
0.020943
0.120783
0.203135
0.101304
0.0192741
0.0240503
0.0893198
0.0105559
0.0113848
0.133855
0.0369907
0.0409552
-0.0183008
0.0774447
-0.00943558
0.147094
0.039449
0.178112
0.0152949
0.101368
0.0203438
0.143446
0.219192
0.103503
0.257784
0.0373396
0.101137
0.0578923
0.161687
0.262256
0.198614
0.286544
0.067086
0.0411166
0.106529
0.0680734
0.181231
0.266514
0.208716
0.0255369
0.0344923
0.0397423
0.0685277
0.10627
0.25525
0.124967
0.0978334
0.0119804
0.147991
0.0328097
0.0552783
0.181735
0.058044
0.0894288
0.00345881
0.130673
0.00467027
0.195115
0.0629018
0.242443
0.0363848
0.164695
0.0505826
0.240352
0.27837
0.152199
0.334234
0.0747799
0.184157
0.142043
0.31726
0.311049
0.226792
0.374571
0.123543
0.0934943
0.243564
0.269309
0.210545
0.364705
0.28576
0.0689051
0.0862209
0.26446
0.186676
0.139419
0.377585
0.181453
0.172
0.0457326
0.301807
0.101026
0.0821077
0.252186
0.0555972
0.149439
0.0216404
0.2198
0.0314089
0.264012
0.0802017
0.332698
0.0738054
0.273849
0.0879595
0.388329
0.401098
0.25805
0.559506
0.175671
0.388769
0.310064
0.717251
0.403753
0.393822
0.592378
0.313068
0.379347
0.651925
1.03106
0.306932
0.572265
0.453616
0.38571
0.242632
1.08068
0.50408
0.203374
0.592571
0.290617
0.370114
0.130014
0.681522
0.252383
0.0771586
0.348802
0.0849653
0.251165
0.0562982
0.359189
0.0760141
0.358925
0.0613955
0.405936
0.114519
0.427424
0.0888709
0.487542
0.634991
0.3676
0.960333
0.367655
0.854277
0.421441
1.06626
0.730971
1.13039
3.79338
0.797359
1.33819
1.28993
4.69554
0.524555
3.37971
1.25247
1.40685
0.612578
4.66289
0.842334
0.334472
1.03469
0.420028
0.813785
0.308656
0.901086
0.379964
0.122256
0.449901
0.0791901
0.396893
0.107305
0.467785
0.094933
0.373048
-0.10668
0.143635
0.105259
0.490455
-0.0882032
0.2605
0.893498
0.150108
0.453676
0.555849
1.00289
0.28956
1.20313
5.69643
0.437792
1.61844
1.44701
-16.9916
1.43666
6.30525
1.12394
1.57731
0.439195
-16.7664
1.43609
6.30702
1.44728
0.430633
0.470265
0.166957
1.04056
0.573045
1.25152
0.297328
0.0833758
0.160916
-0.0973995
0.509228
0.119097
0.269522
-0.0781792
0.0935618
-0.404707
-0.123494
-0.147648
0.193067
-0.439508
-0.166096
0.3286
-0.116225
-0.655463
0.219286
1.0484
-0.153169
-0.679303
1.46394
-0.98948
-5.69936
1.28764
7.12727
-1.01737
0.0752615
0.29852
-5.88572
-0.988685
7.14432
1.30366
-0.18571
-1.04277
0.114721
-0.646515
-0.119939
1.09322
0.2242
-0.715788
-0.183944
-0.155192
-0.12787
-0.411615
0.198912
-0.140162
-0.194708
-0.452163
-0.114387
-0.804392
-0.252805
-0.500679
-0.17048
-0.92207
-0.308998
-0.515455
-0.0483611
3.67975
-0.141779
-0.631886
-0.12977
2.95887
-7.17276
4.23767
27.5107
-1.05972
-2.10763
3.32385
14.6175
-0.866721
27.1216
4.16366
-2.4686
-1.06813
14.4007
3.29102
-0.0994399
3.62078
-0.0845912
-0.665686
-0.177849
2.90603
-0.192825
-0.467372
-0.281046
-0.822775
-0.204863
-0.520568
-0.371011
-0.954764
-0.387594
-1.92329
-2.72108
-1.1595
-0.461224
-2.41857
-3.77299
3.60536
-2.73266
-1.64221
-0.272744
3.1329
-3.88557
0.144886
22.1787
-1.36044
7.20668
3.55325
19.3046
1.29556
27.2222
4.08422
7.20948
-1.34942
19.0746
3.53126
30.426
1.39432
-0.217434
-1.63581
-2.74811
3.08923
-0.332926
0.208593
-3.91359
-1.02158
-2.73695
-1.93784
-0.521574
-1.19426
-3.80536
-2.44785
-3.24761
-2.88469
-6.02255
-3.06348
-4.64432
-3.94965
-10.4959
-2.24033
-6.79582
-14.1881
-4.89764
-0.866315
-12.3834
-56.3829
6.52461
-14.9816
-24.6035
0.341175
38.3418
-63.025
19.7086
-1.95282
-24.6104
-15.0395
43.3383
0.450099
19.7232
-63.1871
-3.33507
-14.24
-6.81739
-0.794411
-4.92228
-56.5512
-12.4128
-2.40186
-6.03919
-2.88991
-4.67337
-3.09045
-10.5219
-3.96943
-5.95457
-1.09946
-1.5715
-3.96296
-10.5089
-1.4759
-2.2515
-14.2431
-1.58795
0.989675
-12.4491
-59.4551
-2.19898
12.197
-25.0354
1.34611
7.88183
-67.0473
-581.092
15.818
196.822
-15.161
7.87958
1.39529
-578.965
-67.2496
196.881
15.894
-6.63305
1.09977
-1.5596
-59.6505
-12.4791
12.2593
-2.20488
-2.88022
-1.57134
-1.09758
-10.5356
-3.98228
-2.26124
-1.48707
-0.800173
0.998566
2.23909
-0.619124
-0.894144
1.28865
3.50383
1.97378
2.58018
5.91331
-0.575056
14.7744
4.15981
12.1518
9.01843
6.50159
9.48426
18.4253
165.858
13.8272
23.1347
2.42967
9.49748
6.49311
165.903
18.4975
23.135
13.8566
-0.717199
5.96918
2.58651
14.836
-0.575657
12.1816
4.16628
-0.490367
2.24438
0.985092
-0.899226
-0.629636
3.50814
1.27971
2.43378
1.48506
2.29044
1.62874
3.58758
1.74632
2.99947
5.69006
2.43636
3.68381
4.18762
10.9332
3.2192
5.32234
8.59126
3.8487
4.79342
12.2552
19.2142
5.57223
6.84507
6.17917
4.79349
3.85994
19.2149
12.2813
6.84527
5.57513
2.70777
3.69992
2.42224
10.9598
4.19298
5.326
3.22145
1.28524
2.27972
1.47351
3.59136
1.62506
3.00155
1.74304
2.13365
1.22805
1.6449
1.72884
2.5973
1.37367
1.88503
3.43886
1.84413
2.34536
3.07131
4.44883
2.13745
2.73934
4.38823
2.48596
2.71406
4.89924
5.6818
2.91814
3.20559
3.79237
2.71414
2.4877
5.68171
4.89824
3.2055
2.91754
2.48098
2.34556
1.84365
4.4457
3.06645
2.73846
2.13613
1.48134
1.64499
1.22307
2.59265
1.7259
1.88397
1.37301
1.49327
0.909386
1.15303
1.29776
1.69529
0.983888
1.25565
2.0681
1.25307
1.47708
1.90009
2.37061
1.3693
1.62489
2.35449
1.53611
1.62689
2.50665
2.72191
1.69267
1.7973
2.18008
1.62688
1.53603
2.72184
2.50622
1.79727
1.6925
1.6702
1.47689
1.25296
2.37
1.89922
1.62465
1.36897
1.16926
1.15164
0.910858
1.69458
1.29723
1.25527
0.983543
1.06633
0.701661
0.853054
0.923658
1.15369
0.734556
0.888331
1.34253
0.973686
1.07417
1.24452
1.46409
1.01816
1.12235
1.46784
1.14181
1.17839
1.51888
1.60608
1.19513
1.2335
1.39078
1.17837
1.14177
1.60606
1.51875
1.23349
1.19508
1.14686
1.07407
0.973604
1.46391
1.24427
1.12227
1.01807
0.857254
0.85284
0.701493
1.15339
0.923274
0.888201
0.734447
0.126964
0.0413187
0.1646
0.0127194
0.0954002
0.00159396
0.0901734
0.14788
0.0630886
0.194171
0.0944185
0.181554
0.0377722
0.102261
-0.480734
0.042823
0.0344099
0.203276
0.35459
0.10268
0.22499
0.0737486
0.00672604
0.0905902
0.37223
0.207351
0.163345
0.103211
0.117739
0.206476
0.0968258
0.194115
0.0908237
0.123491
0.00844979
0.05084
0.176148
0.0609247
0.102984
0.0033015
0.0882686
-0.0100309
0.179918
0.0559754
0.232142
0.00435549
0.0934939
-0.000650188
0.119732
0.211935
0.0912754
0.293489
0.0337289
0.140945
0.0473394
0.196737
0.10892
0.107045
0.165069
0.130597
0.26913
0.15609
0.300034
0.104479
0.12778
0.156971
0.244553
0.0977838
0.288054
0.0879466
0.100564
0.303867
0.124931
0.122826
0.0351064
0.155112
0.0330571
0.0732247
0.250031
0.0803621
0.0973561
-0.00762474
0.120585
-0.0139566
0.252189
0.0768167
0.316816
0.0082589
0.132666
0.013645
0.177102
0.320399
0.149093
0.440398
0.0529833
0.156053
0.0793638
0.283497
0.187316
0.223751
0.373281
0.0902675
0.390748
0.195241
0.511377
0.174881
0.465593
0.233732
0.373025
0.139551
0.456425
0.181157
0.136411
0.517477
0.185903
0.201124
0.0272899
0.262628
0.0528507
0.0950575
0.356008
0.104572
0.116824
-0.00878363
0.1583
-0.00303315
0.342167
0.0988445
0.423136
0.0246655
0.195591
0.0289491
0.258606
0.491362
0.277371
0.71993
0.0895106
0.295027
0.149038
0.528664
0.453685
0.442047
0.759154
0.189353
0.365511
0.3359
0.948772
0.2628
1.11348
0.427624
0.339809
0.161449
0.772093
0.322925
0.211971
0.923986
0.336534
0.24997
0.0609123
0.435109
0.141967
0.12528
0.489598
0.131037
0.178079
0.0104465
0.235361
0.0227178
0.449329
0.0792905
0.463964
0.0500889
0.278244
-0.00563572
0.257311
0.818411
0.386084
1.19209
0.200958
0.631952
0.207997
0.538809
0.903917
0.835077
-1.12819
0.402232
1.12839
0.327777
6.59222
0.496964
1.89587
1.34415
0.882429
0.397491
4.32296
0.306586
0.390603
1.65037
0.501494
0.525071
0.161198
0.432128
0.170999
0.154599
0.549379
0.106281
0.246874
0.0448572
0.237758
-0.00108719
0.426301
-0.105733
0.198855
-0.0087445
0.247161
-0.195921
-0.10037
0.988625
0.224566
1.2977
0.268435
0.616044
-0.140535
-0.383834
-16.1736
1.60945
8.0803
0.696346
4.79034
-0.505628
-0.738902
1.57027
8.019
1.54258
4.33231
0.674807
-0.832162
-0.533496
0.532864
1.29202
0.237367
0.603334
0.272353
-0.355761
-0.151075
0.115612
0.212942
-0.0941772
0.247472
0.00226912
-0.0982159
-0.186067
0.132462
-0.448242
-0.244209
-0.252968
-0.157853
-0.442496
-0.324093
1.14044
-0.250824
-1.01156
-0.202161
-0.594652
-0.344705
-0.973043
9.20828
-1.44689
-0.478841
-0.762265
-1.38737
-1.05162
-3.53438
1.36978
-1.3141
-1.38804
-1.46393
-0.815089
-3.75393
-1.61979
0.163998
-0.993492
-0.276982
-0.632256
-0.208056
-1.05002
-0.405545
-0.158092
-0.271267
-0.462327
-0.158405
-0.244994
-0.37505
-0.461839
-0.241803
-0.920804
-0.321223
-0.47309
-0.29756
-0.785007
-0.418498
-1.02666
-0.14522
2.83557
-0.297959
-0.765289
-0.285468
1.25405
-2.57261
3.19426
14.581
-0.631065
-2.40091
1.38966
2.78733
-1.48066
14.792
3.12985
-2.52552
-1.04603
2.68901
0.994315
-0.269643
2.76078
-0.222073
-0.743032
-0.372869
0.851356
-0.416934
-0.525585
-0.39431
-0.958065
-0.361031
-0.500876
-0.521989
-0.828097
-0.474529
-2.4132
-3.72569
-0.965001
-0.57492
-1.79599
-2.64489
2.97475
-3.82737
0.482818
-0.451111
1.12373
-2.70116
-2.55494
18.4095
1.72647
19.6576
1.26581
2.11341
-2.42104
0.635081
3.33195
18.7067
1.75332
2.00608
0.870625
0.594998
-2.54116
-0.365274
0.496268
-3.86987
0.738863
-0.576603
-2.71416
-2.78
-1.19718
-3.76765
-2.44486
-0.678768
-1.01633
-2.7242
-1.84202
-4.57772
-3.90815
-10.2107
-2.20435
-3.08083
-2.61066
-5.31949
-0.5262
-12.0319
-55.4669
-3.19269
-3.04733
-5.77905
-11.096
25.2083
-61.8869
-304.717
-2.94521
-0.219569
-11.6114
-16.6799
0.809524
-304.936
-62.0585
-0.251495
-3.10446
-16.6825
-11.6963
-4.85552
-55.6865
-12.0818
-3.20331
-3.26579
-11.1883
-5.82554
-3.07191
-10.2539
-3.925
-3.15738
-2.24349
-5.35445
-2.63403
-10.2509
-1.45878
-2.25846
-2.60248
-5.19099
-1.03107
-1.64551
-58.4115
-2.21262
11.8228
-5.68864
-11.2079
-1.60233
-0.573216
15.3754
208.39
-11.7373
-17.2055
-0.463593
2.11039
-65.9109
208.456
15.45
-17.2071
-11.8037
2.12212
-0.459636
-12.1701
11.8834
-2.2243
-11.2667
-5.73058
-0.572657
-1.60465
-3.93524
-2.27096
-1.47407
-5.22175
-2.61928
-1.60483
-1.0451
-0.921136
1.26592
3.45878
-0.483563
-0.992246
0.859623
1.85854
14.3495
4.1056
11.8254
-0.883592
0.238787
2.1186
4.75038
168.568
13.4483
22.5233
0.333978
3.19444
5.09646
7.17138
17.9996
22.5249
13.451
3.2062
0.336408
7.17362
5.11044
-0.620883
11.8252
4.09937
0.237748
-0.892442
4.76459
2.1173
-0.627283
3.45283
1.26261
-0.988389
-0.492083
1.85513
0.858192
3.54552
1.72448
2.98278
1.1422
2.00782
1.38678
2.06735
10.6877
3.20117
5.28092
2.27337
4.68556
2.19203
3.36351
18.7691
5.52861
6.78676
4.97477
6.676
3.57705
4.20629
11.9839
6.78694
5.53146
6.67836
4.9834
4.2066
3.55175
4.13303
5.28459
3.20473
4.68575
2.26723
3.35261
2.1916
1.60059
2.9861
1.72482
2.00874
1.13877
2.06696
1.38997
2.55536
1.36285
1.86492
1.37272
1.95402
1.15675
1.55556
4.37315
2.1145
2.70837
2.26944
3.15889
1.74977