/*--------------------------------*- C++ -*----------------------------------*\
| =========                 |                                                 |
| \\      /  F ield         | OpenFOAM: The Open Source CFD Toolbox           |
|  \\    /   O peration     | Version:  2206                                  |
|   \\  /    A nd           | Website:  www.openfoam.com                      |
|    \\/     M anipulation  |                                                 |
\*---------------------------------------------------------------------------*/
FoamFile
{
    version     2.0;
    format      ascii;
    arch        "LSB;label=32;scalar=64";
    class       volScalarField;
    location    "400";
    object      p;
}
// * * * * * * * * * * * * * * * * * * * * * * * * * * * * * * * * * * * * * //

dimensions      [0 2 -2 0 0 0 0];

internalField   nonuniform List<scalar> 
187974
(
-0.0357016
-0.0152019
-0.027453
-0.042962
-0.0429114
-0.0266924
-0.0138356
-0.0359676
-0.056314
-0.0515723
-0.0651098
-0.058541
-0.0579459
-0.0618137
-0.0477858
-0.0585334
-0.0191075
-0.0132106
-0.0252967
-0.0272361
-0.0271816
-0.0247124
-0.0128126
-0.020038
-0.0073493
0.0033546
-0.0114595
-0.0123273
-0.0125539
-0.011635
0.00290359
-0.0081954
-0.00457841
0.0197959
0.00193717
0.00616138
0.00578799
0.00145454
0.0189965
-0.00505617
-0.0142322
0.0315608
0.0105112
0.0233353
0.0229984
0.0102516
0.0306634
-0.0148851
-0.0391175
0.0359421
0.0114318
0.0351352
0.0353275
0.0124215
0.0363555
-0.0376466
-0.0877305
0.0155146
-0.0148498
0.0179976
0.0188858
-0.0128813
0.0174813
-0.0834542
-0.157632
-0.0451846
-0.0946295
-0.0652387
-0.064406
-0.0930548
-0.042883
-0.153874
-0.230456
-0.122579
-0.183743
-0.153345
-0.153457
-0.183418
-0.122719
-0.230098
-0.291405
-0.21517
-0.257488
-0.210346
-0.211414
-0.260225
-0.216149
-0.294097
-0.320246
-0.362207
-0.442294
-0.466382
-0.467032
-0.444434
-0.363979
-0.324222
-0.223809
-0.400529
-0.500737
-0.603181
-0.603654
-0.500704
-0.401473
-0.229627
0.0097351
-0.192803
-0.181906
-0.242793
-0.244037
-0.181835
-0.192546
0.00829055
0.253727
0.104464
0.239914
0.238997
0.238602
0.238083
0.100795
0.256846
0.403675
0.304549
0.495124
0.520805
0.519929
0.49433
0.302055
0.404714
0.442366
0.382767
0.571881
0.60219
0.601997
0.571265
0.381706
0.444715
0.414442
0.387423
0.547644
0.579491
0.579417
0.547989
0.387781
0.415783
0.341417
0.354698
0.477379
0.512366
0.512341
0.477383
0.354625
0.342088
0.232908
0.304331
0.393245
0.429906
0.429908
0.39332
0.304401
0.233164
-0.0306044
0.0166645
-0.0615321
-0.0499517
-0.0510661
-0.058934
0.015988
-0.0281158
-0.0788162
0.066385
0.0913541
0.192464
0.189386
0.0838845
0.0584038
-0.0740923
-0.0370395
-0.0309991
-0.0147916
0.00678939
0.0192649
0.0123663
0.0114492
-0.0120922
-0.026395
-0.0125822
0.00930568
0.0293972
0.0391546
0.0357278
0.025028
0.0123579
-0.029171
-0.0129478
0.0115221
0.0320131
0.0438276
0.0431638
0.0343044
0.0222609
-0.0445539
-0.021074
0.00702603
0.0297713
0.0438276
0.0463046
0.0413363
0.0312965
-0.0742707
-0.0394881
-0.00486122
0.0226417
0.0393544
0.0429649
0.0406957
0.0352577
-0.123217
-0.0771795
-0.0361023
-0.00317025
0.0173577
0.0190197
0.0233638
0.0345742
-0.201486
-0.139963
-0.101058
-0.0796237
-0.0619933
-0.0489721
-0.0238609
0.0132101
-0.318565
-0.229625
-0.17922
-0.158031
-0.144882
-0.13196
-0.102306
-0.0431488
-0.415745
-0.316628
-0.237937
-0.157168
-0.125776
-0.176438
-0.195143
-0.120774
-0.492368
-0.448425
-0.41219
-0.308617
-0.263255
-0.366394
-0.396561
-0.258593
-0.465108
-0.590963
-0.773579
-0.884845
-0.909319
-0.862139
-0.7038
-0.423513
-0.215062
-0.465343
-0.731669
-0.944763
-1.00434
-0.8832
-0.667143
-0.40009
0.164601
0.00855416
-0.0553363
-0.0352799
-0.0244514
-0.0791972
-0.13013
-0.131107
0.437244
0.402424
0.497579
0.626186
0.657246
0.536463
0.338616
0.141382
0.525362
0.548537
0.674636
0.79803
0.826317
0.723407
0.522179
0.271932
0.494222
0.528348
0.643061
0.73683
0.758117
0.685069
0.527283
0.297994
0.425868
0.439156
0.54936
0.626019
0.644147
0.591726
0.474723
0.28479
0.305292
0.432531
0.556897
0.617045
0.617001
0.556877
0.43243
0.305234
-0.0577688
0.00449459
0.0700438
-0.228079
-0.22797
0.0724846
0.00603789
-0.051634
-0.245935
0.107065
0.250287
0.278587
0.19084
0.171363
0.0738752
-0.240309
-0.0533577
-0.104956
-0.0235542
-0.213206
-0.389297
-0.0987793
0.111438
0.122798
-0.0328251
-0.0181561
0.0278605
0.0550706
0.0670637
0.0765863
0.0536698
0.0340259
-0.0274634
-0.0100745
0.0393784
0.0783733
0.09907
0.099471
0.0740642
0.0416489
-0.0335718
-0.000542892
0.057846
0.100325
0.123703
0.127791
0.100692
0.0652273
-0.0649414
0.00536855
0.0859089
0.137021
0.167009
0.16848
0.128822
0.082303
-0.129873
0.000271798
0.108502
0.189523
0.240708
0.21052
0.144927
0.130657
-0.241539
-0.0479955
0.0427111
0.102308
0.155711
0.116043
0.0748232
0.0912493
-0.449691
-0.20855
-0.138076
-0.185691
-0.204494
-0.144649
-0.0977794
-0.0366923
-0.670331
-0.374636
-0.205638
-0.040954
0.051929
-0.0670828
-0.228598
-0.195011
-0.929131
-0.646295
-0.420914
0.354839
0.989845
0.103274
-0.528183
-0.511726
-1.0488
-1.16049
-1.59438
-1.69714
-1.58005
-1.72537
-1.53227
-0.999697
-0.617464
-1.18742
-2.07902
-3.1004
-3.54725
-2.86913
-1.86982
-0.997555
0.219342
-0.229779
-0.35648
-0.11829
0.11091
-0.158906
-0.379704
-0.270655
0.771599
0.646511
1.05945
1.70285
1.9972
1.54946
0.892279
0.351319
0.91058
0.897836
1.29089
1.7342
1.88828
1.62387
1.14547
0.564007
0.77217
0.800667
1.07441
1.33583
1.41868
1.27898
0.984482
0.523501
0.650749
0.636065
0.844127
1.01045
1.06083
0.980616
0.78792
0.446909
0.423354
0.568878
0.729092
0.83845
0.862092
0.795326
0.657422
0.423008
-0.0868319
-0.074413
-0.123918
0.955213
0.962885
-0.113516
-0.0719145
-0.0850386
-0.307837
0.187155
0.483701
0.666008
0.18928
-0.368995
-0.0986575
-0.300993
-0.0847204
-0.122844
0.138591
0.488117
-1.22567
0.0410947
-0.0496979
0.106255
-0.0350755
0.0161455
0.121329
0.243051
0.322679
0.222349
0.102392
0.0605407
-0.0243823
0.0375129
0.0895393
0.182748
0.238529
0.209575
0.145207
0.101229
-0.0289608
0.0561149
0.11304
0.190812
0.298189
0.269453
0.201019
0.168392
-0.0536366
0.0787852
0.177866
0.279966
0.395543
0.404897
0.276168
0.207794
-0.11552
0.0986451
0.293361
0.449016
0.698691
0.675998
0.383979
0.278506
-0.254868
0.0657878
0.398342
1.03553
5.55132
0.9713
0.400662
0.251991
-0.538725
-0.161664
0.100341
0.297047
1.41873
0.343292
0.105787
0.0341266
-0.92222
-0.456568
-0.0924528
-0.865731
-7.3602
-0.514424
-0.123452
-0.244108
-1.44731
-1.00215
-0.18429
4.16082
22.2554
3.51102
-0.415825
-0.780356
-1.90736
-2.38929
-3.3219
-1.96952
6.52353
-2.22856
-3.2623
-1.92579
-1.29446
-2.87435
-6.61906
-15.0918
-25.0467
-14.3032
-5.96501
-2.09795
0.256263
-0.489146
-0.699234
2.39703
9.01101
2.04202
-0.818164
-0.431196
1.16309
1.27127
2.75894
6.19256
8.60973
5.73346
2.37812
0.670554
1.25991
1.47773
2.487
3.79957
4.3882
3.42721
2.11828
0.881928
1.02181
1.17295
1.66938
2.17952
2.35453
2.06806
1.49631
0.737957
0.800299
0.856053
1.14707
1.39087
1.46785
1.34241
1.06547
0.582885
0.493424
0.688604
0.883983
1.02172
1.05157
0.966142
0.791841
0.493262
0.0218744
-0.0106625
0.285924
-0.137005
-0.14728
0.304573
-0.00208253
0.0256783
-0.183685
0.0944383
0.212569
-0.454162
-1.16569
-0.691844
-0.125648
-0.175367
-0.0603338
-0.061495
0.126048
-0.0392645
-0.430109
0.391798
0.044308
0.116911
-0.0242157
0.033779
0.0955946
0.0563333
-0.423952
0.171197
0.140181
0.0925197
-0.0235855
0.0519901
0.0706413
0.050167
0.070765
0.217932
0.190583
0.12725
-0.033841
0.0693928
0.102143
0.126146
0.169742
0.344635
0.274079
0.180861
-0.0588752
0.095941
0.17244
0.263921
0.585736
0.592116
0.388595
0.243925
-0.122808
0.120631
0.324094
0.511111
1.36418
1.06122
0.518788
0.314719
-0.268285
0.0915247
0.489865
1.49843
-15.5258
1.07067
0.46375
0.291228
-0.565425
-0.167101
0.152807
1.44526
9.11984
1.12401
0.143365
0.0408438
-0.969581
-0.502778
-0.233497
-1.52613
-3.24991
-1.02061
-0.277456
-0.247551
-1.55681
-1.1585
-0.292311
3.37648
18.2718
2.91229
-0.544852
-0.853429
-2.13368
-3.04474
-4.81518
0.765498
26.3676
-0.503823
-4.61803
-2.22708
-1.506
-3.92047
-12.1226
-65.7107
-58.653
-10.2919
-2.44098
0.231209
-0.619073
-0.614679
17.923
168.611
14.4115
-0.929655
-0.475752
1.23301
1.60227
4.13833
11.9841
18.7705
10.6874
3.54107
0.786689
1.31359
1.70738
3.0203
4.81373
5.58112
4.37581
2.55845
0.958075
1.06374
1.28874
1.88237
2.48175
2.69471
2.34771
1.68007
0.781147
0.824721
0.919707
1.23749
1.50969
1.59624
1.45535
1.14735
0.609538
0.487326
0.710623
0.91159
1.0543
1.0852
0.995911
0.812472
0.487125
-0.0395641
-0.0228222
-0.0574401
-0.00716685
0.0106315
-0.0559443
-0.0137709
-0.0385933
-0.142764
0.020416
-0.0204336
-0.183651
-0.173936
-0.199293
-0.0641546
-0.135774
-0.0451336
-0.116078
0.0574727
0.0313765
0.110965
0.112098
0.0184831
0.0982301
-0.00651124
0.0339706
0.0543579
0.0380917
0.094761
0.0888729
0.0944077
0.0825729
-0.0151208
0.0460407
0.0747419
0.103126
0.134591
0.160839
0.141606
0.090328
-0.0326275
0.0516591
0.104637
0.104065
0.148179
0.232206
0.18734
0.11988
-0.0691982
0.0430689
0.129078
0.15054
0.220535
0.302177
0.24999
0.154487
-0.139844
0.0560062
0.200879
0.286161
0.450923
0.459414
0.296437
0.189908
-0.283108
-0.0435988
0.0974465
0.268084
1.26059
0.227118
0.112182
0.108476
-0.497601
-0.266253
-0.252577
-0.699228
-1.08629
-0.601015
-0.178664
-0.077503
-0.767922
-0.476598
-0.327139
-0.53841
-1.05506
-0.560733
-0.368927
-0.261004
-1.10315
-0.895369
-0.49513
1.2492
2.33109
0.685184
-0.660189
-0.649269
-1.35419
-1.90879
-2.9176
-2.90915
-0.867633
-3.11548
-2.84079
-1.36012
-0.863733
-2.12923
-4.72318
-10.4191
-14.7918
-9.97824
-4.38518
-1.38456
0.214677
-0.418739
-0.868839
0.0953737
2.23273
-0.0773092
-0.904235
-0.379981
0.907678
1.00772
1.99779
4.14923
5.53834
3.85331
1.75657
0.46502
1.01607
1.24182
1.95582
2.81573
3.2174
2.57837
1.68493
0.653303
0.874453
1.03092
1.44295
1.84324
1.98168
1.7524
1.28879
0.606741
0.703436
0.7811
1.03387
1.24616
1.3121
1.20405
0.956695
0.509591
0.409357
0.614455
0.783618
0.90068
0.924889
0.849999
0.694255
0.409195
-0.0106436
0.0123359
-0.0289288
0.00879661
0.00887743
-0.0260998
0.0115211
-0.00844293
-0.0438699
0.0300941
0.0626147
0.13771
0.143613
0.0794903
0.037479
-0.0393558
0.0116597
-0.00505102
0.00800221
0.00892891
0.0222904
0.0152463
0.0264834
0.0230165
0.0252859
0.0415067
0.0641492
0.0822399
0.0775394
0.0773954
0.0653681
0.0369468
0.0243349
0.0523481
0.0912969
0.113238
0.119141
0.116834
0.0940144
0.0531561
0.00448754
0.0602028
0.105228
0.138872
0.14993
0.145385
0.112756
0.0617756
-0.0423406
0.0317723
0.0978472
0.143856
0.159705
0.155543
0.117667
0.0694288
-0.109864
-0.0181959
0.0587061
0.120312
0.144607
0.132471
0.0904563
0.0516221
-0.219377
-0.134849
-0.0793097
-0.0521622
-0.0392054
-0.0248917
-0.0147235
0.000880319
-0.354189
-0.284553
-0.298357
-0.392512
-0.431517
-0.305796
-0.188177
-0.0926602
-0.486593
-0.393992
-0.321795
-0.211799
-0.16184
-0.264159
-0.291086
-0.185013
-0.615539
-0.580868
-0.563623
-0.429476
-0.381394
-0.529924
-0.561602
-0.354632
-0.62697
-0.820258
-1.14108
-1.3696
-1.42444
-1.31418
-1.0092
-0.576912
-0.314376
-0.648155
-1.08803
-1.45602
-1.56164
-1.33427
-0.957556
-0.54628
0.201227
-0.000802202
-0.0761921
-0.0388789
-0.0224726
-0.107127
-0.175964
-0.155782
0.550625
0.528425
0.691648
0.9022
0.953932
0.766476
0.47872
0.209809
0.65372
0.712147
0.910918
1.08883
1.12665
0.979309
0.697489
0.370739
0.608359
0.660813
0.8204
0.950199
0.976726
0.8782
0.665554
0.379062
0.511371
0.543393
0.683649
0.785308
0.808652
0.740572
0.590495
0.357538
0.289333
0.407202
0.522834
0.578299
0.578312
0.522904
0.407406
0.289454
-0.00294396
-0.00425038
-0.00243979
-0.000646501
-0.00128683
-0.00365817
-0.00522192
-0.00286442
0.00417335
-0.0204444
-0.0183169
-0.021112
-0.0262981
-0.0288542
-0.0294451
0.00381607
0.0287184
0.0242031
0.0344085
0.0367212
0.0359268
0.0344536
0.0244949
0.0320975
0.03452
0.0433629
0.0585107
0.0707828
0.0717933
0.063584
0.0493749
0.0405674
0.0273049
0.0600306
0.072792
0.092754
0.0943707
0.0775605
0.0647737
0.0338123
0.00141722
0.05621
0.0587133
0.086389
0.0888906
0.0654083
0.0612048
0.00802526
-0.0434343
0.0307791
0.0196954
0.0513486
0.0541396
0.0263859
0.0366794
-0.0362402
-0.10667
-0.0257135
-0.0619447
-0.0376922
-0.0356416
-0.0562955
-0.0198319
-0.101213
-0.174296
-0.102208
-0.172016
-0.169467
-0.167883
-0.167882
-0.0985805
-0.17326
-0.225814
-0.160023
-0.229137
-0.221841
-0.222527
-0.229301
-0.160267
-0.229101
-0.266371
-0.228377
-0.277721
-0.260706
-0.263185
-0.280938
-0.232096
-0.270814
-0.279479
-0.33307
-0.403764
-0.44052
-0.443522
-0.408895
-0.338058
-0.283885
-0.188178
-0.349427
-0.421449
-0.51262
-0.514993
-0.425975
-0.354602
-0.191953
0.0190594
-0.170446
-0.156814
-0.222147
-0.223612
-0.159765
-0.174125
0.0160103
0.23574
0.0796686
0.198678
0.185516
0.18473
0.1977
0.0780569
0.234689
0.369077
0.26221
0.43027
0.443187
0.442798
0.430467
0.262035
0.371364
0.407302
0.341032
0.510608
0.531747
0.531578
0.511029
0.341209
0.408517
0.385432
0.354073
0.501063
0.527387
0.527414
0.502154
0.355466
0.387985
0.32002
0.328761
0.441977
0.472912
0.472823
0.44216
0.329206
0.320703
0.218671
0.283413
0.365478
0.398862
0.398867
0.365586
0.283491
0.218955
0.0559997
-0.0126442
0.0671672
-0.0323152
0.00329734
-0.00351497
0.0672616
0.0808113
0.0333722
0.0946448
-0.0211315
-0.0402118
0.0281839
0.0796137
0.0743066
0.0697004
0.098692
-0.0529597
-0.0592597
0.0541614
0.0865857
0.0642812
0.0897878
0.0798597
-0.0486092
-0.0618458
0.0848419
0.0571665
0.0337948
0.0904136
0.0424498
-0.0421996
-0.0183792
0.0784413
0.0270371
-0.012895
0.0674198
-0.00369758
0.00494882
-0.0315911
0.0612359
-0.00559344
0.07292
-0.00742847
0.0863376
0.00572664
0.0801109
-0.010393
0.11461
0.103166
0.047535
0.115738
0.0401627
0.109704
0.0682027
0.139394
0.108235
0.0879118
0.120296
0.0784307
0.0866582
0.116441
0.134622
0.089155
0.111137
0.100143
0.0924891
0.0673689
0.131357
0.105578
0.0492671
0.114142
0.0593701
0.0891642
0.0355576
0.1303
0.0634488
-0.000963507
0.0906144
0.00316034
0.0722104
0.00186905
0.105646
0.00549104
0.0954441
-0.000564086
0.111801
0.033515
0.136769
0.0422876
0.188166
0.128217
0.0719547
0.147679
0.0839421
0.149596
0.132499
0.216457
0.1325
0.11884
0.156239
0.138812
0.150027
0.204065
0.244269
0.113354
0.148051
0.133253
0.148514
0.110915
0.239502
0.215323
0.0701804
0.150055
0.0831513
0.142602
0.0763631
0.228723
0.125268
0.00950472
0.117489
0.00415913
0.120832
0.0283243
0.172162
0.0315956
0.122229
-0.00318689
0.130578
0.0538923
0.210225
0.0662494
0.281434
0.164716
0.0981457
0.187561
0.159279
0.274828
0.237941
0.414097
0.174689
0.17033
0.22313
0.266495
0.303676
0.4327
0.567791
0.151755
0.216702
0.185281
0.29639
0.249053
0.545116
0.41938
0.0976737
0.19518
0.109699
0.252016
0.147623
0.38804
0.225607
0.0114723
0.138179
-0.00218325
0.194578
0.045969
0.264519
0.0369279
0.135109
-0.0463551
0.0879939
0.0759408
0.308411
0.0369351
0.315887
0.200843
0.0673072
0.145804
0.266977
0.466057
0.253419
0.470444
0.246312
0.149399
0.221993
0.492731
0.706662
0.524868
1.56736
0.20482
0.219505
0.161054
0.67601
0.483022
1.35002
0.515164
0.1215
0.157161
0.0806495
0.44283
0.254059
0.459267
0.260519
0.0123343
0.0997103
-0.0355334
0.291654
0.0788335
0.321403
0.0453045
0.0616692
-0.186779
-0.0572631
0.0234544
0.299409
-0.141529
0.156327
0.103287
-0.085945
-0.0743858
0.303471
0.44185
0.162451
0.441907
0.155014
-0.0931235
-0.087528
0.498691
1.54889
0.427821
0.634185
0.114126
-0.0861304
-0.0844501
1.5187
0.506841
0.598272
0.42242
0.0574553
-0.0645373
-0.0735724
0.452852
0.314307
0.441228
0.170021
-0.0383013
-0.0464417
-0.180983
0.311533
0.0394825
0.154285
-0.133757
-0.10633
-0.334113
-0.19543
-0.194474
0.0973796
-0.411659
-0.102844
-0.153227
-0.201645
-0.148023
0.116691
0.335167
-0.0980058
-0.226323
-0.205431
-0.165401
-0.165066
0.305778
0.428334
-0.406214
-2.33955
-0.178126
-0.165107
-0.164518
0.387935
0.29884
-2.39276
-0.429441
-0.127531
-0.147806
-0.201006
0.333187
0.119827
-0.245969
-0.112495
-0.198909
-0.196276
-0.345962
0.0974671
-0.186797
-0.117258
-0.421731
-0.224689
-0.545507
-0.360121
-0.46094
-0.0974142
-0.767563
-0.223046
-0.0615211
-0.275752
0.243705
-0.0795222
-0.0295722
-0.0878194
3.41669
0.0529231
0.458358
1.09271
-0.188679
-2.19228
4.02869
22.9954
-0.0438938
1.08974
0.447924
-2.22911
-0.200821
22.347
3.94799
-0.209552
0.236611
-0.286367
-0.0546236
-0.0988977
3.35496
-0.127869
-0.381736
-0.371365
-0.556225
-0.117914
-0.470119
-0.257007
-0.784832
-0.515838
-0.975038
-1.1969
-0.936132
-0.345869
-1.72749
-2.43673
0.116297
-1.20727
-1.08903
-0.197061
3.38132
-2.49041
-1.64972
0.994097
-0.993967
-0.711817
4.00708
19.1684
-1.39991
4.95851
0.340551
-0.715422
-1.00374
19.4258
3.93638
4.95777
-1.39871
-0.43302
-1.0993
-1.21765
3.34042
-0.244022
-1.64985
-2.50951
-0.656455
-1.20895
-0.983865
-0.376648
-0.9522
-2.45326
-1.74086
-1.52143
-1.17523
-1.89153
-2.08782
-2.88999
-2.43411
-5.16194
-1.71537
-2.09069
-2.84267
-2.99106
-2.21632
-5.72026
-12.5175
-1.57408
-3.06606
-3.47446
-1.98692
4.35661
-13.2863
-20.7393
-1.70592
-3.4768
-3.07528
4.36291
-1.98359
-20.7503
-13.3341
-1.60522
-2.85294
-2.09706
-2.21152
-3.0145
-12.5622
-5.73827
-1.169
-1.89896
-1.18279
-2.91012
-2.09948
-5.18072
-2.4416
-1.86534
-0.463491
-0.791508
-2.38489
-5.05101
-0.903461
-1.41298
-2.85592
-0.835891
-0.920171
-5.53583
-12.5966
-1.45877
0.547057
-3.54076
-0.932024
-0.851353
-13.3761
-21.0912
0.84212
5.74627
-3.11431
-0.858161
-0.905304
-21.1055
-13.4333
5.747
0.800996
-2.08398
-0.892539
-0.833338
-12.6502
-5.55794
0.585973
-1.4246
-1.1892
-0.791762
-0.454756
-5.06235
-2.39448
-1.43948
-0.905102
-0.380375
0.473326
0.674105
-0.390368
-0.76092
0.897933
1.98021
-0.192668
0.804873
1.27284
-0.693752
1.40826
2.28745
5.01102
0.117822
1.41846
1.72663
1.81848
6.90155
5.48482
7.73727
-0.0888663
1.73093
1.41537
6.89796
1.77852
7.74271
5.47842
-0.349144
1.27461
0.80437
1.45059
-0.672283
4.99895
2.27537
-0.232011
0.664415
0.467672
-0.775389
-0.397169
1.97446
0.883388
0.897477
0.825618
1.10146
1.14229
2.12599
1.34676
2.15965
1.54631
1.24943
1.63335
2.44964
4.88674
2.31197
3.44625
1.99487
1.74523
1.92843
5.30106
7.22054
3.59564
4.46308
1.6947
1.92175
1.72374
7.22553
5.29757
4.46242
3.60702
1.05794
1.62223
1.24686
4.87619
2.41576
3.45938
2.31478
0.643648
1.09682
0.832495
2.11247
1.14082
2.17155
1.33811
1.14656
0.809082
1.00615
1.348
1.85517
1.1434
1.47133
1.63456
1.11021
1.32903
2.15088
2.90678
1.65848
2.10807
1.89035
1.39776
1.50383
3.18598
3.67889
2.24
2.42728
1.72382
1.50203
1.3947
3.67372
3.18729
2.42685
2.23648
1.29008
1.33365
1.11427
2.93361
2.16839
2.1076
1.66821
0.893048
1.00808
0.808807
1.86344
1.34019
1.48235
1.13817
0.981922
0.65695
0.810613
1.08715
1.35867
0.857494
1.07662
1.27759
0.877266
1.0254
1.52116
1.88497
1.1751
1.3788
1.41927
1.05914
1.11346
1.98571
2.13504
1.43357
1.51541
1.33273
1.11341
1.05858
2.13487
1.98414
1.51537
1.43334
1.08079
1.02511
0.877648
1.88512
1.52632
1.37858
1.17511
0.80136
0.810211
0.657663
1.36316
1.08766
1.07555
0.85578
0.788101
0.558613
0.679545
0.814581
1.00513
0.646015
0.77221
0.98061
0.767668
0.844523
1.08315
1.26341
0.887178
0.970715
1.06085
0.892387
0.919931
1.30863
1.37902
1.0335
1.06421
1.01021
0.91992
0.892417
1.379
1.3085
1.06419
1.03348
0.844738
0.844502
0.7682
1.26329
1.08317
0.970657
0.887194
0.638881
0.678837
0.558311
1.00469
0.815722
0.772073
0.646649
0.114618
0.0277496
0.138494
-0.00585743
0.0563448
0.00319039
0.0881047
0.230235
0.0890148
0.223024
0.0455977
0.0798695
0.0254531
0.0789735
0.324143
0.17082
0.265577
0.0197
-0.0452332
0.0492976
0.01916
0.250884
0.2468
0.183396
-0.0218835
-0.0505645
0.000244449
0.0209472
0.120781
0.203135
0.101302
0.0192782
0.0240516
0.089324
0.0105578
0.0113792
0.133854
0.0369869
0.040957
-0.018303
0.0774464
-0.0094357
0.147098
0.0394526
0.178117
0.0153015
0.101375
0.0203509
0.143454
0.219196
0.103507
0.257789
0.0373459
0.101144
0.0578997
0.161695
0.262258
0.198618
0.286547
0.0670923
0.0411227
0.106537
0.068081
0.181232
0.266517
0.208717
0.0255423
0.0344968
0.0397489
0.0685332
0.106268
0.255252
0.124965
0.0978378
0.0119825
0.147996
0.0328124
0.0552745
0.181735
0.0580405
0.0894306
0.00345895
0.130676
0.00467079
0.195121
0.0629059
0.24245
0.036392
0.164704
0.0505902
0.240363
0.278376
0.152204
0.334242
0.0747879
0.184166
0.142053
0.317272
0.311052
0.226798
0.374576
0.123552
0.0935027
0.243576
0.26932
0.210546
0.364709
0.285762
0.0689123
0.0862269
0.26447
0.186684
0.139418
0.377587
0.181451
0.172006
0.0457354
0.301815
0.101029
0.0821037
0.252184
0.0555916
0.149441
0.0216409
0.219802
0.0314086
0.26402
0.0802061
0.33271
0.0738129
0.273861
0.0879679
0.388346
0.401106
0.258058
0.559518
0.175681
0.388783
0.310078
0.717271
0.40376
0.393833
0.592389
0.313081
0.37936
0.651945
1.03108
0.306935
0.572273
0.453619
0.385721
0.242641
1.0807
0.504092
0.203372
0.592573
0.290613
0.370122
0.130017
0.681532
0.252384
0.0771528
0.348797
0.0849579
0.251167
0.0562971
0.35919
0.0760106
0.358938
0.0614005
0.405951
0.114528
0.427442
0.0888817
0.487563
0.635004
0.367614
0.960351
0.367671
0.8543
0.421465
1.0663
0.730983
1.13041
3.7934
0.797383
1.33821
1.28998
4.69559
0.524559
3.37973
1.25248
1.40687
0.612592
4.66293
0.842361
0.334465
1.03469
0.420008
0.813796
0.308656
0.901104
0.379947
0.122246
0.449879
0.0791729
0.396892
0.107299
0.467764
0.0949223
0.373061
-0.106678
0.143644
0.105271
0.490478
-0.0881956
0.260512
0.893517
0.150116
0.453691
0.555874
1.00293
0.289574
1.20316
5.69644
0.437808
1.61845
1.44706
-16.9916
1.4367
6.30531
1.12394
1.57733
0.439185
-16.7664
1.43611
6.30708
1.44728
0.430611
0.47025
0.166925
1.04058
0.573029
1.25151
0.297297
0.0833555
0.16088
-0.097426
0.509208
0.119085
0.269485
-0.078198
0.093569
-0.404713
-0.123493
-0.147643
0.193077
-0.439521
-0.166128
0.328615
-0.116223
-0.655449
0.219297
1.04843
-0.153211
-0.67932
1.46396
-0.989466
-5.69936
1.28768
7.12735
-1.01736
0.0760233
0.298508
-5.88573
-0.988735
7.14439
1.30366
-0.185084
-1.04287
0.114686
-0.646572
-0.120005
1.09321
0.224163
-0.715926
-0.184076
-0.155222
-0.127936
-0.411654
0.198869
-0.140186
-0.194828
-0.452211
-0.114386
-0.804414
-0.252814
-0.500699
-0.170522
-0.92211
-0.309095
-0.515442
-0.0483638
3.68008
-0.141835
-0.631943
-0.12987
2.95808
-7.17278
4.23806
27.5127
-1.05975
-2.10644
3.32282
14.6183
-0.866784
27.1237
4.16402
-2.46773
-1.06829
14.3991
3.28975
-0.0995132
3.62106
-0.0846965
-0.665883
-0.178005
2.90475
-0.193073
-0.467417
-0.28114
-0.822817
-0.205
-0.520626
-0.371231
-0.954834
-0.387607
-1.92333
-2.72117
-1.15955
-0.461328
-2.41866
-3.77325
3.60575
-2.73277
-1.64259
-0.272844
3.13208
-3.88591
0.143027
22.1815
-1.36091
7.19596
3.55221
19.2949
1.29347
27.2186
4.08467
7.19783
-1.35037
19.0566
3.52993
30.4425
1.39089
-0.217531
-1.63659
-2.74827
3.08795
-0.333168
0.205636
-3.91419
-1.02162
-2.73707
-1.93787
-0.521802
-1.19434
-3.80583
-2.44796
-3.2477
-2.88471
-6.02252
-3.06358
-4.64459
-3.9497
-10.4959
-2.24071
-6.79575
-14.1876
-4.89801
-0.868392
-12.3835
-56.3824
6.51576
-14.981
-24.6019
0.338792
38.3525
-63.0244
19.7092
-1.95373
-24.6088
-15.0389
43.3654
0.44633
19.7379
-63.1863
-3.33521
-14.2395
-6.81723
-0.797642
-4.92292
-56.5506
-12.4128
-2.40187
-6.03907
-2.88987
-4.67386
-3.09056
-10.5219
-3.96942
-5.95453
-1.09945
-1.57147
-3.96299
-10.5089
-1.4759
-2.25144
-14.2426
-1.58792
0.989603
-12.4491
-59.4545
-2.1989
12.1973
-25.0341
1.34602
7.88112
-67.0466
-581.072
15.8183
196.822
-15.1605
7.87885
1.39492
-578.94
-67.2486
196.882
15.8945
-6.6329
1.09945
-1.55955
-59.6497
-12.479
12.2598
-2.20463
-2.88016
-1.57129
-1.09751
-10.5356
-3.98223
-2.26103
-1.48696
-0.800153
0.998571
2.23909
-0.619117
-0.894086
1.28867
3.50387
1.9737
2.58018
5.91327
-0.574979
14.7747
4.15985
12.1519
9.01778
6.50154
9.48415
18.4255
165.859
13.8272
23.1348
2.42933
9.49737
6.49306
165.904
18.498
23.1351
13.8568
-0.717159
5.96914
2.58654
14.8365
-0.575417
12.1818
4.16642
-0.4903
2.24442
0.985145
-0.89902
-0.629523
3.50827
1.2798
2.43378
1.48507
2.29045
1.62875
3.58762
1.74633
2.9995
5.69003
2.43637
3.68382
4.18767
10.9332
3.21923
5.32238
8.59118
3.8487
4.79342
12.2553
19.2143
5.57228
6.84513
6.17914
4.7935
3.85996
19.215
12.2815
6.84533
5.57521
2.70781
3.69994
2.42227
10.96
4.19311
5.32608
3.22153
1.28529
2.27975
1.47355
3.59148
1.62514
3.00162
1.74309
2.13366
1.22806
1.64491
1.72886
2.59732
1.37368
1.88505
3.43887
1.84415
2.34537
3.07134
4.44887
2.13747
2.73937
4.38824
2.48597
2.71408
4.89928
5.68185
2.91817
3.20563
3.7924
2.71416
2.48772
5.68176
4.89831
3.20554
2.91758
2.48102
2.34558
1.84367
4.44576
3.06652
2.7385
2.13617
1.48138
1.64502
1.2231
2.5927
1.72596
1.88401
1.37304
1.49328
0.909393
1.15304
1.29778
1.69531
0.983898
1.25567
2.06811
1.25308
1.47709
1.90011
2.37064
1.36931
1.62491
2.35451
1.53612
1.62691
2.50668
2.72194
1.69268
1.79732
2.1801
1.62689
1.53605
2.72187
2.50625
1.7973
1.69252
1.67023
1.47691
1.25297
2.37003
1.89925
1.62468
1.369
1.16928
1.15166
0.910873
1.69461
1.29726
1.25529
0.983562
1.06634
0.701667
0.853062
0.923667
1.1537
0.734563
0.888339
1.34254
0.973694
1.07418
1.24454
1.46411
1.01817
1.12236
1.46785
1.14182
1.1784
1.5189
1.6061
1.19514
1.23352
1.39079
1.17838
1.14178
1.60608
1.51877
1.2335
1.1951
1.14687
1.07408
0.973616
1.46393
1.24429
1.12229
1.01808
0.857268
0.852852
0.701503
1.15341
0.923292
0.888215
0.734459
0.126969
0.0413251
0.164607
0.0127282
0.0954075
0.00160389
0.090182
0.147885
0.0630946
0.194177
0.0944272
0.181562
0.037782
0.10227
-0.48073
0.0428287
0.0344155
0.203284
0.354599
0.10269
0.224999
0.0737518
0.00673135
0.0905943
0.372238
0.207358
0.163355
0.103219
0.117741
0.20648
0.0968279
0.194122
0.0908293
0.123498
0.00845605
0.0508386
0.17615
0.0609253
0.102988
0.00330464
0.0882735
-0.0100262
0.179925
0.055983
0.23215
0.00436586
0.093503
-0.000638799
0.119743
0.211942
0.0912833
0.293497
0.033739
0.140955
0.047351
0.196749
0.108926
0.107053
0.165077
0.130608
0.26914
0.156103
0.300045
0.104484
0.127787
0.156977
0.244563
0.0977926
0.288066
0.0879566
0.100567
0.303872
0.124934
0.122834
0.0351131
0.155121
0.0330648
0.0732258
0.250034
0.080364
0.0973613
-0.00761946
0.120591
-0.0139501
0.252198
0.0768254
0.316828
0.00827088
0.132678
0.0136581
0.177116
0.320409
0.149104
0.440411
0.0529955
0.156065
0.0793786
0.283513
0.187324
0.223763
0.373292
0.0902795
0.390759
0.195257
0.511393
0.174888
0.465604
0.23374
0.373036
0.139562
0.456441
0.18117
0.136415
0.517485
0.185908
0.201134
0.0272979
0.26264
0.0528599
0.0950597
0.356013
0.104573
0.11683
-0.00877642
0.158307
-0.00302561
0.342181
0.098855
0.423155
0.0246795
0.195607
0.0289651
0.258627
0.491376
0.277388
0.719952
0.0895268
0.295044
0.14906
0.528689
0.453698
0.442069
0.759174
0.18937
0.36553
0.335926
0.948798
0.26281
1.1135
0.427638
0.339827
0.161463
0.772118
0.322944
0.211975
0.923998
0.336538
0.249982
0.0609219
0.435125
0.141978
0.125282
0.489602
0.131037
0.178086
0.0104546
0.235368
0.0227247
0.449351
0.0793047
0.463994
0.050107
0.278268
-0.00561513
0.257347
0.818436
0.386116
1.19214
0.200982
0.63198
0.208035
0.538852
0.903942
0.835126
-1.12813
0.402261
1.12842
0.327821
6.59226
0.49698
1.89592
1.34418
0.882457
0.397512
4.323
0.306614
0.390606
1.6504
0.501485
0.525089
0.161209
0.432152
0.171008
0.154598
0.549371
0.106275
0.246882
0.0448642
0.237761
-0.0010832
0.426328
-0.105723
0.198871
-0.0087224
0.247198
-0.195906
-0.100349
0.988667
0.224582
1.29773
0.268473
0.616091
-0.140516
-0.383817
-16.1736
1.60949
8.08035
0.696394
4.79038
-0.505611
-0.738886
1.57029
8.01905
1.54258
4.33235
0.674839
-0.832149
-0.533502
0.532853
1.29202
0.237339
0.603363
0.272362
-0.35577
-0.151086
0.115605
0.212909
-0.0941919
0.247478
0.00227335
-0.098226
-0.18607
0.132475
-0.448254
-0.244242
-0.252956
-0.157835
-0.442502
-0.32411
1.14047
-0.250868
-1.0116
-0.202145
-0.59464
-0.34473
-0.973112
9.20835
-1.44691
-0.478091
-0.762254
-1.38736
-1.0517
-3.53447
1.36978
-1.31366
-1.38821
-1.46392
-0.815104
-3.75403
-1.61993
0.163964
-0.993678
-0.277115
-0.632276
-0.208072
-1.05016
-0.405617
-0.158112
-0.271385
-0.462371
-0.15842
-0.245
-0.375112
-0.461864
-0.241846
-0.920843
-0.321316
-0.473103
-0.297582
-0.785045
-0.41854
-1.02675
-0.145314
2.8347
-0.29799
-0.76537
-0.285505
1.254
-2.57133
3.19313
14.6006
-0.631162
-2.40103
1.38962
2.78727
-1.48091
14.7533
3.12847
-2.52566
-1.0462
2.68892
0.99427
-0.2698
2.75941
-0.222296
-0.743202
-0.372949
0.851291
-0.417013
-0.525639
-0.394517
-0.958132
-0.361099
-0.500908
-0.522079
-0.828152
-0.474626
-2.41329
-3.72595
-0.965049
-0.574968
-1.79609
-2.64509
2.97388
-3.82769
0.481224
-0.451149
1.12372
-2.70141
-2.55575
18.4156
1.72469
19.6205
1.26581
2.11349
-2.42196
0.630955
3.33056
18.6648
1.74993
2.00614
0.870611
0.59087
-2.54269
-0.365483
0.493361
-3.87051
0.738825
-0.576688
-2.71562
-2.78048
-1.19726
-3.76816
-2.445
-0.678873
-1.01641
-2.7246
-1.84216
-4.578
-3.90823
-10.2108
-2.20447
-3.08106
-2.61075
-5.31965
-0.528031
-12.0321
-55.4666
-3.19297
-3.04818
-5.77923
-11.0961
25.1964
-61.8865
-304.691
-2.94616
-0.223547
-11.6114
-16.6794
0.805727
-304.919
-62.0587
-0.255473
-3.10596
-16.682
-11.6964
-4.85622
-55.6866
-12.0819
-3.20471
-3.26632
-11.1884
-5.82578
-3.07205
-10.254
-3.92503
-3.15782
-2.24365
-5.35465
-2.63412
-10.2509
-1.45879
-2.2584
-2.60256
-5.19112
-1.03108
-1.64549
-58.4112
-2.21254
11.8231
-5.68878
-11.208
-1.6023
-0.572954
15.3757
208.391
-11.7374
-17.205
-0.463311
2.11111
-65.9108
208.457
15.4508
-17.2066
-11.8038
2.12285
-0.459065
-12.1701
11.8841
-2.22401
-11.2668
-5.73073
-0.572107
-1.60446
-3.93521
-2.27071
-1.47396
-5.22189
-2.61932
-1.60466
-1.04503
-0.921076
1.26594
3.45883
-0.483568
-0.992211
0.859639
1.8586
14.3498
4.10566
11.8255
-0.883544
0.239051
2.11866
4.75053
168.569
13.4484
22.5235
0.334261
3.19513
5.09663
7.17166
18.0003
22.5251
13.4513
3.2069
0.336966
7.1739
5.11071
-0.620603
11.8254
4.09953
0.238288
-0.89223
4.76485
2.11747
-0.627164
3.45298
1.26271
-0.988209
-0.491994
1.85528
0.858281
3.54556
1.7245
2.98281
1.14222
2.00787
1.3868
2.06739
10.6878
3.2012
5.28097
2.27343
4.6857
2.19207
3.36358
18.7692
5.52866
6.78683
4.97492
6.67624
3.57713
4.20639
11.9841
6.78701
5.53154
6.67861
4.98364
4.20671
3.55186
4.13318
5.28468
3.20481
4.68599
2.26738
3.35272
2.19168
1.60068
2.98618
1.72488
2.00888
1.13886
2.06704
1.39003
2.55539
1.36287
1.86494
1.37274
1.95406
1.15676
1.55559
4.3732
2.11452
2.7084
2.26947
3.15895
1.7498
2.1925
5.58083