/*--------------------------------*- C++ -*----------------------------------*\
| =========                 |                                                 |
| \\      /  F ield         | OpenFOAM: The Open Source CFD Toolbox           |
|  \\    /   O peration     | Version:  2206                                  |
|   \\  /    A nd           | Website:  www.openfoam.com                      |
|    \\/     M anipulation  |                                                 |
\*---------------------------------------------------------------------------*/
FoamFile
{
    version     2.0;
    format      ascii;
    arch        "LSB;label=32;scalar=64";
    class       volScalarField;
    location    "400";
    object      yPlus;
}
// * * * * * * * * * * * * * * * * * * * * * * * * * * * * * * * * * * * * * //

dimensions      [0 0 0 0 0 0 0];

internalField   uniform 0;

boundaryField
{
    movingWall
    {
        type            calculated;
        value           uniform 0;
    }
    front
    {
        type            calculated;
        value           uniform 0;
    }
    back
    {
        type            calculated;
        value           uniform 0;
    }
    sfera1
    {
        type            calculated;
        value           nonuniform List<scalar> 
274
(
1915.08
1821.23
9135.49
9128.39
14288.3
11827.2
14729.6
11700.4
9130.65
9777.05
10380.9
1658.09
9214.86
9692.53
10223.4
5310.3
5839.72
1654.16
2778.38
1279.43
1272.93
2829.49
5912.22
9628.15
5067
9575.64
5298.96
5060.75
2880.07
1762.62
968.403
2108.86
2112.77
640.198
1606.41
1468.48
640.152
1051.34
5314.71
2996.74
493.78
1094.29
1083.98
4132.61
988.851
3797.31
2143.84
3758.58
2090.4
1044.52
5314.81
1281.81
4910.87
5395.89
5393.96
2170.23
2105.73
1865.43
1015.4
1027.63
4923.43
681.199
906.197
454.006
2460.24
1503.26
4727.77
2460.75
1527.49
4733.12
4890.8
1855.87
1598.72
2362.79
789.114
786.058
2480.58
1730.32
1509.01
1641.01
2912.3
1047.18
1196.11
312.622
1860.56
1584.26
2361.19
2027.59
758.926
753.37
1106.73
4879.53
2062.94
3487.48
4278.3
2509.03
3702.68
5606.3
1021.5
1009.08
827.48
965.319
560.367
285.701
442.958
325.36
539.186
720.61
287.386
1553.54
1096.7
2516.6
2100.43
340.276
2507.15
2300.25
1217.85
436.332
1901.02
2526.7
2298.16
1215.53
471.603
1884.7
2527.3
2024.25
755.04
2882.64
770.923
1106.9
4878.15
2076.99
4205.15
2520.37
5602.94
5181.24
4162.62
4013.52
5061.03
4164.45
5059.88
2914.65
1752.98
974.167
1635.65
1317.43
549.978
553.221
3082.15
1275.19
949.286
561.696
1160.68
3346.96
4910.65
961.101
329.645
3993.37
1054.14
948.34
3345.1
333.663
2270.23
1025.85
2134.97
811.692
1035.09
1269.98
1960.67
815.778
1272.48
711.864
962.116
625.167
3659.18
3758.17
3638.1
3752.79
1738.89
778.458
2277.85
2065.81
845.32
314.939
808.713
2691.12
2884.22
1760.6
1597.66
1739.45
2241.89
2500.47
2517.59
2869.14
1245.67
1316.75
667.345
1700.27
525.048
1737.45
781.027
2089.98
2282.05
2254.07
2504.37
2532.87
1695.4
671.002
548.455
1068.8
1186.89
141.63
2772.21
2217.21
865.988
1035.76
657.404
317.784
406.469
237.551
2100.74
3423.68
4883.75
2226.64
723.367
677.57
433.899
335.479
1178.18
1298.44
5187.82
3787.67
3156.89
658.777
7484.1
1850.29
835.19
2551.98
2387.6
548.026
2560.82
135.79
3486.51
2768.39
2210.56
2097.78
3415.07
4882.53
2217.63
338.605
1175.14
1289.51
3784.59
3152.12
663.756
7480.85
3712.32
3291.98
6479.14
3625.3
3638.92
5037.59
4286.34
5404.2
5254.49
3286.79
6455.23
4008.27
3603.13
3637.33
5036.9
4286.72
5397.44
5240.49
)
;
    }
    sfera2
    {
        type            calculated;
        value           nonuniform List<scalar> 
280
(
3083.55
3103.66
4737.11
12141.9
14610.7
5495.54
9964.99
9408.61
4760.26
11971.5
14441.9
5490.78
9893.49
9394.85
2486.39
9950.04
10682.9
10205.2
6027.46
1283.72
5568.37
2515.35
9908.37
10593.3
10158.5
6013.11
1277.89
5564.86
1014.87
1020.18
1562.67
1539.36
1130.88
4314.77
1717.47
2250.27
1832.18
1691.16
1744.8
2250.55
1864.92
1689.13
946.949
1060.3
1254.69
859.483
2050.1
3305.16
3321.36
2119.92
4308.64
1992.57
1653.53
1953.16
3957.5
959.252
1059.21
858.123
1263.04
2054.05
3300.82
2117.15
3325.86
4313.89
1996.16
1955.48
1658.3
3956.57
1882.09
1427.53
1032.25
854.286
1892.92
1419.43
1059.58
868.662
2245.11
620.822
647.421
1921.33
1653.23
1744.28
1748.17
1122.74
2334.15
653.511
646.791
1941.75
1649.54
1738.96
1767.84
460.187
1995.07
1539.82
2001.43
1278.8
672.702
777.116
1301.69
2196.62
1955.36
2138.58
915.772
796.198
1270.24
1028.43
217.41
1171.67
500.22
302.452
2324.3
2771.76
3635.97
840.014
491.532
505.3
879.612
4400.43
2305.16
3730.86
884.999
1480.01
3897.03
952.159
1877.11
2397.43
3510.19
467.082
1515.62
2820.91
4223.47
1778.55
455.307
3238.13
1997.24
1540.31
1997.47
1731.5
1283.49
673.381
1304.06
781.413
2190.9
2131.35
926.806
788.415
1279.1
1027.48
240.288
1169
512.419
312.505
2329.9
2782.16
3640.86
843.286
493.369
877.326
506.626
4412.03
2344.43
3727.13
880.649
1483.88
3882.3
951.205
1877.34
2398.41
3501.03
469.477
1498.9
2807.41
6561.85
4224.12
1754.63
1145.27
1018.79
4312.52
4989.59
4078.71
1769.27
5093.79
5808.19
6590.84
5052.59
5392.05
5294.65
5120.16
1012.75
5000.67
4092.73
1769.61
5101.03
5813.55
5052.38
5389.47
5295.85
5104.95
1161.44
1224.53
2526.26
1083.42
1725.68
1224.9
1180.89
2485.42
1147.88
1068.38
2199.27
2352.97
3824.03
3231.44
2228.15
945.402
1908.99
2034.21
1963.7
1585.93
1898.25
1254.45
2756.06
746.595
1120.58
451.38
859.367
673.068
631.26
573.309
795.726
1054.09
616.6
2477.08
3365.95
1017.97
4562.91
2334.16
323.638
3703.49
4755.48
4015.92
3346.5
4116.6
3394.42
5149.26
2222.74
2336.76
3839.61
2225.81
1944.53
949.624
1914.35
2753.04
2002.59
1964.86
1577
1893.52
1246.63
744.411
1113.77
484.982
835.108
718.78
586.214
578.3
794.656
1066.06
619.011
2481.77
1005.91
3399.82
4589.24
2323.96
347.059
3682.15
4109.45
4011.55
3345.21
4757.19
3389.64
5149.5
)
;
    }
}


// ************************************************************************* //
