/*--------------------------------*- C++ -*----------------------------------*\
| =========                 |                                                 |
| \\      /  F ield         | OpenFOAM: The Open Source CFD Toolbox           |
|  \\    /   O peration     | Version:  2206                                  |
|   \\  /    A nd           | Website:  www.openfoam.com                      |
|    \\/     M anipulation  |                                                 |
\*---------------------------------------------------------------------------*/
FoamFile
{
    version     2.0;
    format      ascii;
    arch        "LSB;label=32;scalar=64";
    class       volScalarField;
    location    "400";
    object      yPlus;
}
// * * * * * * * * * * * * * * * * * * * * * * * * * * * * * * * * * * * * * //

dimensions      [0 0 0 0 0 0 0];

internalField   uniform 0;

boundaryField
{
    movingWall
    {
        type            calculated;
        value           uniform 0;
    }
    front
    {
        type            calculated;
        value           uniform 0;
    }
    back
    {
        type            calculated;
        value           uniform 0;
    }
    sfera1
    {
        type            calculated;
        value           nonuniform List<scalar> 
274
(
1915.02
1820.92
9135.5
9128.41
14288.4
11827.3
14729.6
11700.5
9131.03
9777.3
10381.1
1657.87
9214.86
9692.54
10223.4
5310.3
5839.74
1654.25
2778.64
1279.43
1272.93
2829.43
5912.23
9628.15
5067
9575.67
5298.98
5060.77
2880.11
1762.79
968.417
2108.87
2112.78
639.892
1606.43
1468.53
640.029
1050.89
5314.81
2996.81
493.805
1094.3
1084.02
4132.63
988.896
3797.32
2143.84
3758.62
2090.42
1044.34
5314.8
1281.87
4910.89
5395.88
5394.03
2170.23
2105.75
1865.4
1015.66
1027.72
4923.64
681.212
906.197
453.993
2460.25
1503.26
4727.79
2460.76
1527.51
4733.15
4890.8
1855.33
1598.45
2362.49
789.131
786.08
2480.6
1730.35
1509
1640.98
2912.36
1047.16
1196.14
312.729
1860.51
1584.25
2361.23
2027.37
758.698
753.412
1106.68
4879.77
2063.23
3487.84
4278.73
2509.8
3702.85
5606.55
1021.52
1009.1
827.493
965.305
560.367
285.679
442.971
325.375
539.165
720.62
287.478
1553.54
1096.71
2516.62
2100.45
340.34
2507.18
2300.26
1217.85
436.324
1901.02
2526.71
2298.17
1215.53
471.621
1884.71
2527.31
2024.24
755.025
2882.52
770.897
1106.86
4878.11
2077.01
4205.15
2520.36
5602.95
5181.24
4162.63
4013.51
5061.02
4164.46
5059.93
2914.74
1753
974.18
1635.68
1317.45
549.37
552.905
3082.18
1275.83
949.937
561.711
1160.7
3346.99
4910.67
961.122
329.046
3993.4
1054.15
948.13
3345.11
333.995
2270.36
1025.83
2135.04
811.622
1035.29
1270.04
1960.76
816.076
1272.61
711.878
962.136
625.19
3659.18
3758.17
3638.13
3752.82
1738.56
778.755
2277.57
2065.16
845.363
314.978
808.712
2691.2
2884.15
1760.63
1597.71
1739.49
2241.79
2500.18
2517.37
2869.17
1245.73
1316.8
666.4
1699.66
524.815
1737.55
780.91
2089.9
2282
2254.18
2504.43
2532.85
1695.85
671.427
549.696
1068.81
1186.9
141.825
2772.62
2217.5
866.008
1035.79
657.427
317.809
406.531
237.578
2100.79
3423.74
4883.79
2226.72
723.41
677.563
433.922
335.381
1178.3
1298.59
5187.92
3787.76
3157.05
658.911
7484.24
1850.31
835.204
2552.01
2387.63
548.022
2560.84
135.59
3486.5
2768.28
2210.43
2097.78
3415.06
4882.53
2217.6
338.676
1175.08
1289.42
3784.57
3152.08
663.771
7480.85
3712.33
3291.99
6479.14
3625.3
3638.92
5037.58
4286.34
5404.2
5254.49
3286.81
6455.28
4008.31
3603.16
3637.35
5036.96
4286.77
5397.5
5240.54
)
;
    }
    sfera2
    {
        type            calculated;
        value           nonuniform List<scalar> 
280
(
3083.65
3103.84
4737.15
12142
14610.7
5495.56
9965.01
9408.63
4760.18
11971.5
14441.9
5490.81
9893.53
9394.88
2486.45
9950.1
10682.9
10205.2
6027.47
1283.72
5568.38
2515.3
9908.42
10593.3
10158.5
6013.13
1277.9
5564.89
1014.9
1020.28
1562.56
1538.51
1130.69
4314.73
1717.48
2250.33
1832.17
1691.22
1744.92
2250.65
1865.16
1689.23
946.936
1060.31
1254.68
859.499
2050.01
3305.09
3321.3
2119.79
4308.65
1992.57
1653.54
1953.17
3957.46
959.282
1059.2
858.128
1263.06
2053.84
3300.72
2116.96
3325.75
4313.91
1996.16
1955.49
1658.31
3956.52
1882.1
1427.93
1031.88
854.402
1893.33
1419.43
1060.39
868.341
2245.01
620.803
647.454
1921.34
1653.27
1744.34
1748.17
1122.81
2334.4
653.635
646.835
1941.79
1649.57
1739.02
1767.9
460.34
1995.22
1539.8
2001.6
1278.89
672.585
777.037
1301.85
2196.81
1955.41
2138.6
915.765
796.238
1270.24
1028.45
217.369
1171.68
500.234
302.427
2324.26
2771.73
3635.94
839.889
491.646
505.359
879.351
4400.43
2305.17
3730.88
885.023
1480.01
3897.02
952.162
1877.12
2397.44
3510.2
467.066
1515.62
2820.88
4223.44
1778.56
455.631
3238.01
1997.89
1540.71
1997.87
1732.11
1283.76
673.293
1304.31
781.433
2191.7
2132.27
926.843
788.44
1279.15
1027.49
240.322
1169
512.412
312.516
2329.7
2781.95
3640.75
842.959
493.471
876.916
506.692
4411.92
2344.43
3727.14
880.666
1483.89
3882.27
951.208
1877.35
2398.42
3501.04
469.483
1498.91
2807.38
6561.82
4224.08
1754.64
1145.37
1018.85
4312.52
4989.59
4078.71
1769.28
5093.77
5808.19
6590.83
5052.58
5392.04
5294.65
5120.15
1012.68
5000.55
4092.68
1770.12
5100.91
5813.48
5052.34
5389.42
5295.82
5104.91
1161.37
1224.61
2526.39
1083.33
1725.6
1225.01
1180.88
2485.48
1147.99
1069.32
2199.28
2353
3824.03
3231.45
2228.17
945.36
1909.19
2034.37
1963.13
1585.79
1898.23
1254.59
2756.16
746.636
1120.61
451.311
859.39
672.981
631.3
573.28
795.819
1054.03
616.653
2477.11
3365.93
1018
4562.9
2334.22
323.564
3703.48
4755.44
4015.88
3346.48
4116.59
3394.4
5149.24
2222.37
2336.5
3839.42
2226.38
1944.84
949.772
1914.71
2753.11
2002.65
1964.06
1577.03
1893.12
1247.09
744.431
1113.79
485.023
835.091
718.842
586.165
577.988
794.949
1065.7
619.046
2481.79
1005.92
3399.3
4588.97
2323.99
346.992
3682.12
4109.41
4011.5
3345.19
4757.12
3389.61
5149.42
)
;
    }
}


// ************************************************************************* //
