/*--------------------------------*- C++ -*----------------------------------*\
| =========                 |                                                 |
| \\      /  F ield         | OpenFOAM: The Open Source CFD Toolbox           |
|  \\    /   O peration     | Version:  2206                                  |
|   \\  /    A nd           | Website:  www.openfoam.com                      |
|    \\/     M anipulation  |                                                 |
\*---------------------------------------------------------------------------*/
FoamFile
{
    version     2.0;
    format      ascii;
    arch        "LSB;label=32;scalar=64";
    class       volScalarField;
    location    "200";
    object      nut;
}
// * * * * * * * * * * * * * * * * * * * * * * * * * * * * * * * * * * * * * //

dimensions      [0 2 -1 0 0 0 0];

internalField   nonuniform List<scalar> 
198968
(
0.0402007
0.0411622
0.0411607
0.0411608
0.041161
0.0411606
0.0411622
0.0402105
0.0407974
0.0406128
0.0406455
0.0406331
0.0406241
0.0406426
0.0406221
0.0408067
0.0410935
0.0412017
0.041249
0.0412363
0.041229
0.0412459
0.0412305
0.0411076
0.0416806
0.0417157
0.0417617
0.0417493
0.0417419
0.0417592
0.0417424
0.0416174
0.0422379
0.0421831
0.0422437
0.0422367
0.0422314
0.042246
0.0422182
0.0420779
0.0425122
0.0425998
0.0426534
0.0426609
0.0426725
0.042657
0.0426332
0.0424996
0.0427753
0.0429853
0.0430599
0.0430706
0.0430902
0.0430592
0.0430342
0.042879
0.0430176
0.0433754
0.0434314
0.0434524
0.0434723
0.0434285
0.0434084
0.0432631
0.04328
0.0437696
0.0437839
0.0438051
0.043812
0.0437823
0.0437602
0.0436741
0.0438028
0.0441974
0.0441849
0.0441639
0.0441653
0.0441629
0.0441618
0.0441049
0.0444113
0.0446007
0.0445995
0.0445697
0.0445704
0.0445699
0.0445708
0.0445089
0.0450158
0.0449916
0.0450011
0.0449686
0.0449688
0.0449694
0.0449692
0.0449059
0.0455121
0.0453853
0.04539
0.0453587
0.0453588
0.0453588
0.0453594
0.0452994
0.045832
0.0457309
0.0457346
0.0457406
0.0457406
0.0457405
0.0457406
0.045679
0.0461972
0.0460884
0.0460915
0.0460923
0.0460925
0.0460922
0.0460924
0.0460241
0.0466036
0.0464826
0.046485
0.0464852
0.0464852
0.0464851
0.0464851
0.0464094
0.0470349
0.0469231
0.0469246
0.0469247
0.0469247
0.0469247
0.0469246
0.0468366
0.0475436
0.0474223
0.0474231
0.0474231
0.0474231
0.0474231
0.0474231
0.0473229
0.0481175
0.047998
0.0479978
0.0479977
0.0479976
0.0479977
0.047998
0.047894
0.0488783
0.0486717
0.0486712
0.0486707
0.0486706
0.0486709
0.0486715
0.0488783
0.0385207
0.0430199
0.0430581
0.0430694
0.0430749
0.0430667
0.0430383
0.0428962
0.0392061
0.0431581
0.0431975
0.0432119
0.0432173
0.0432074
0.0431791
0.0430363
0.0397793
0.0432839
0.0433193
0.0433333
0.0433352
0.0433294
0.0433035
0.043148
0.0403367
0.0434057
0.0434295
0.0434503
0.0434474
0.0434465
0.0434129
0.043272
0.0409154
0.0435463
0.0435439
0.0435517
0.0435506
0.0435491
0.0435432
0.0434214
0.0414745
0.0437185
0.0437131
0.0437157
0.0437141
0.0437143
0.0437144
0.0436363
0.0420573
0.0439116
0.0439095
0.0439104
0.0439095
0.0439098
0.04391
0.0438755
0.0426414
0.0441212
0.0441208
0.0441202
0.0441197
0.0441204
0.0441207
0.0440866
0.0432097
0.0443439
0.0443446
0.0443442
0.0443441
0.0443443
0.0443445
0.0443399
0.043792
0.0445815
0.0445823
0.0445828
0.0445828
0.0445824
0.0445821
0.0445752
0.0443411
0.044838
0.0448367
0.044837
0.0448369
0.0448368
0.0448377
0.0448305
0.0448585
0.045114
0.0451122
0.0451116
0.0451116
0.0451119
0.0451135
0.0451128
0.0453606
0.0454105
0.0454101
0.0454097
0.0454095
0.0454097
0.0454104
0.0454083
0.0457347
0.0457347
0.0457348
0.0457353
0.0457353
0.0457354
0.0457347
0.0457324
0.0460937
0.0460922
0.0460962
0.0460977
0.0460978
0.0460978
0.046096
0.0460909
0.046488
0.0464881
0.0464913
0.0464921
0.0464921
0.0464919
0.0464908
0.0464864
0.046931
0.04693
0.046932
0.0469323
0.0469323
0.0469325
0.0469311
0.046927
0.0474323
0.0474325
0.047434
0.0474329
0.0474321
0.0474336
0.0474337
0.0474291
0.0480108
0.0480104
0.04801
0.0480093
0.0480088
0.0480096
0.0480104
0.0480096
0.0486829
0.048681
0.0486789
0.048678
0.0486776
0.0486783
0.0486801
0.0486817
0.0419589
0.0451568
0.0451651
0.0451624
0.0451598
0.045161
0.0451629
0.0447738
0.0423681
0.0452881
0.0452979
0.0452989
0.0452932
0.0452955
0.0452944
0.0449407
0.0426653
0.045396
0.0454027
0.0454043
0.0453978
0.0454019
0.0453999
0.0451504
0.0428943
0.0454167
0.0454266
0.0454264
0.0454213
0.0454271
0.0454258
0.0453694
0.0429584
0.0454429
0.0454386
0.045432
0.0454281
0.0454357
0.0454375
0.0455046
0.042902
0.045488
0.0454721
0.0454658
0.0454656
0.0454687
0.0454704
0.0454487
0.0428981
0.0454941
0.0455003
0.0454971
0.0454932
0.045499
0.0455
0.0451791
0.0429571
0.0452263
0.0452851
0.0452849
0.0452548
0.0452889
0.0452838
0.0449548
0.0430246
0.044683
0.044713
0.0447129
0.0446787
0.0447172
0.0447125
0.044432
0.0435023
0.0445592
0.0445219
0.0445107
0.0445013
0.0445146
0.044529
0.044546
0.0438206
0.0448019
0.0447646
0.0447491
0.0447439
0.0447522
0.0447715
0.0448041
0.0441927
0.0450792
0.0450576
0.0450438
0.0450486
0.0450442
0.0450579
0.0450774
0.0448689
0.0453729
0.0453714
0.0453698
0.0453663
0.0453699
0.0453717
0.0453718
0.0456226
0.0456924
0.045691
0.0456911
0.0456902
0.045692
0.0456912
0.0456914
0.0460431
0.046045
0.0460511
0.0460565
0.0460562
0.046056
0.0460492
0.046043
0.04643
0.0464362
0.0464412
0.0464448
0.0464458
0.0464441
0.0464401
0.0464329
0.0468638
0.0468704
0.0468773
0.0468853
0.046886
0.0468842
0.0468755
0.0468666
0.0474334
0.0473649
0.0473707
0.0473763
0.0473775
0.0473751
0.0473692
0.0474385
0.0480124
0.0479298
0.0479311
0.0479339
0.0479349
0.0479332
0.0479306
0.0480135
0.0486796
0.048678
0.0486784
0.048679
0.0486792
0.0486787
0.048678
0.0486788
0.0420041
0.0451434
0.0452003
0.0451409
0.0451394
0.0451384
0.0451734
0.0447809
0.0424391
0.045278
0.0454123
0.045316
0.0453166
0.0453139
0.0453997
0.0449481
0.0427514
0.0453882
0.045604
0.0454939
0.0454971
0.0454922
0.045596
0.0451576
0.0429493
0.0454275
0.0458223
0.0456629
0.0456677
0.0456612
0.0458124
0.045378
0.0429986
0.0454278
0.0459811
0.0459056
0.0459077
0.045903
0.0459647
0.0455311
0.0429497
0.0454606
0.0461446
0.046166
0.0461637
0.0461633
0.0461237
0.0454842
0.0428591
0.0455074
0.0463181
0.0464449
0.0464404
0.046443
0.0462925
0.0452032
0.0430565
0.0452694
0.0464945
0.0467447
0.0467409
0.0467444
0.0464649
0.0449862
0.0431348
0.0446854
0.0466273
0.0470445
0.0470347
0.0470468
0.0466145
0.044431
0.0433154
0.0445275
0.0465953
0.047287
0.047276
0.0472864
0.0465924
0.0445433
0.043594
0.0447701
0.046768
0.0475401
0.0475477
0.0475388
0.0467682
0.0448021
0.0441884
0.0450597
0.046929
0.0476654
0.0476516
0.047664
0.0469263
0.0450759
0.0448667
0.0453722
0.0459397
0.047811
0.0478248
0.0478065
0.0459332
0.0453722
0.0456221
0.0456924
0.0456672
0.047505
0.0474794
0.0475014
0.0456667
0.0456909
0.0460433
0.0460465
0.0460275
0.0460316
0.0460412
0.0460315
0.0460265
0.0460444
0.0464303
0.0464383
0.0464212
0.0464329
0.046439
0.0464322
0.0464195
0.0464341
0.0468627
0.0468733
0.0468835
0.0468916
0.0468976
0.0468894
0.0468815
0.0468679
0.0474271
0.0473628
0.0473715
0.0473815
0.047384
0.0473794
0.0473693
0.0474336
0.0480094
0.0479292
0.0479355
0.047937
0.0479372
0.0479368
0.0479349
0.048012
0.0486787
0.0486787
0.0486796
0.0486798
0.0486799
0.0486797
0.0486792
0.0486787
0.0419986
0.0451348
0.0451942
0.0451283
0.0451261
0.0451299
0.0451681
0.0447808
0.0424361
0.0452697
0.0454059
0.0453032
0.0453027
0.0453039
0.0453959
0.0449528
0.0427584
0.0453795
0.0455989
0.0454879
0.0454879
0.0454862
0.0455931
0.0451594
0.0429501
0.0454227
0.0458169
0.0456665
0.0456642
0.0456647
0.045807
0.0453791
0.0429966
0.0454273
0.0459753
0.0459103
0.0459052
0.0459092
0.0459594
0.0455269
0.0429573
0.0454594
0.046141
0.0461676
0.046162
0.0461654
0.04612
0.0454759
0.042861
0.045505
0.0463186
0.0464449
0.0464401
0.0464411
0.0462923
0.0451909
0.0430738
0.0452611
0.0464984
0.0467437
0.0467466
0.0467402
0.0464655
0.0449749
0.0431738
0.0446713
0.0466364
0.0470418
0.0471617
0.0470416
0.0466181
0.0444282
0.043339
0.0445181
0.0466115
0.0473407
0.0473639
0.0473147
0.0465969
0.0445423
0.0435817
0.0447683
0.0467792
0.0478392
0.0367627
0.0476856
0.0467722
0.0448011
0.0441944
0.0450566
0.0469389
0.048252
0.0594021
0.0480668
0.0469363
0.0450763
0.0448636
0.0453724
0.0459089
0.0488531
0.13534
0.0485321
0.0459301
0.0453723
0.0456211
0.0456925
0.045676
0.0482586
0.0480437
0.0456726
0.0456909
0.0460436
0.0460508
0.0460368
0.0460948
0.0467104
0.0460834
0.0460352
0.0460473
0.0464301
0.0464373
0.0464263
0.0464371
0.0464473
0.0464346
0.046425
0.0464338
0.0468621
0.0468731
0.0468834
0.0468957
0.0469005
0.0468924
0.0468814
0.0468678
0.0474253
0.0473615
0.0473726
0.0473827
0.0473849
0.0473808
0.0473694
0.0474326
0.0480091
0.0479284
0.0479365
0.0479375
0.0479377
0.0479374
0.0479358
0.0480118
0.0486788
0.0486789
0.0486797
0.04868
0.04868
0.0486799
0.0486794
0.0486789
0.0429713
0.0451487
0.0451978
0.045175
0.045175
0.0451684
0.0451465
0.0447887
0.0428561
0.0452836
0.0454216
0.0453857
0.0453852
0.0453822
0.0453694
0.044954
0.0427951
0.0453941
0.0456165
0.0455761
0.0455756
0.045576
0.0455634
0.0451618
0.0429748
0.0454309
0.0458176
0.045714
0.0457099
0.0457167
0.0458138
0.0453836
0.0430194
0.0454371
0.0459739
0.0459153
0.0459102
0.0459169
0.0459645
0.0455328
0.0429393
0.0454658
0.046137
0.0461271
0.0461236
0.0461267
0.0461225
0.0454751
0.0428797
0.0455092
0.0463071
0.0463562
0.046354
0.0463562
0.0462923
0.0451868
0.0429729
0.0452602
0.0464782
0.0466066
0.0466027
0.0466085
0.0464642
0.0449656
0.0430892
0.04468
0.0466239
0.046983
0.0469749
0.0469823
0.0466161
0.0444271
0.043318
0.0445283
0.0465955
0.047205
0.0472024
0.0472046
0.0465953
0.0445427
0.0436503
0.0447747
0.0467729
0.0474663
0.0474783
0.0474681
0.0467679
0.0448026
0.0441754
0.0450605
0.0469256
0.0476504
0.0476359
0.0476477
0.0469277
0.045076
0.0448608
0.045372
0.0459226
0.0477944
0.0477824
0.0477898
0.0459258
0.0453723
0.0456223
0.0456922
0.0456679
0.0474892
0.047436
0.0474749
0.0456673
0.0456911
0.0460432
0.0460456
0.0460267
0.0460302
0.0460382
0.0460301
0.0460263
0.0460437
0.0464305
0.0464378
0.0464202
0.046432
0.046435
0.0464315
0.0464193
0.0464342
0.0468639
0.0468728
0.0468835
0.0468898
0.0468951
0.0468883
0.0468814
0.0468683
0.047431
0.0473634
0.0473717
0.0473801
0.0473831
0.047378
0.0473697
0.0474366
0.0480107
0.0479289
0.0479352
0.0479366
0.047937
0.0479364
0.0479341
0.0480127
0.0486786
0.0486783
0.0486791
0.0486796
0.0486796
0.0486794
0.0486787
0.0486783
0.0393596
0.044777
0.0447652
0.0447611
0.0447641
0.0447583
0.0447682
0.0447522
0.0398554
0.0450518
0.0450327
0.0450268
0.0450302
0.045022
0.0450387
0.0450422
0.0402092
0.0452913
0.0452772
0.04527
0.0452714
0.0452664
0.0452837
0.0451498
0.0405834
0.0454226
0.045432
0.0454238
0.0454188
0.0454251
0.0454223
0.0450426
0.0410507
0.0453309
0.0453602
0.0453516
0.0453401
0.0453629
0.0453381
0.0446929
0.0415528
0.0450072
0.0450561
0.0450573
0.0450412
0.0450763
0.0450279
0.0443009
0.0421348
0.0446297
0.0446844
0.04469
0.0446748
0.0447089
0.0446533
0.0440525
0.0426795
0.0443959
0.0444325
0.0444376
0.0444281
0.04445
0.0444101
0.0440258
0.0432477
0.044375
0.0443943
0.0444005
0.0443939
0.0444037
0.0443893
0.0443411
0.0438031
0.044549
0.0445424
0.0445347
0.0445323
0.044536
0.0445423
0.0445464
0.0442811
0.0448042
0.0447994
0.0447944
0.0447928
0.0447933
0.0447991
0.044803
0.0448059
0.0450764
0.0450742
0.045071
0.0450699
0.04507
0.0450744
0.0450776
0.0452912
0.0453715
0.0453709
0.0453697
0.0453682
0.0453698
0.045371
0.0453717
0.045744
0.0456903
0.0456894
0.0456899
0.045689
0.0456905
0.0456894
0.0456907
0.0460914
0.0460433
0.0460501
0.0460534
0.046053
0.0460535
0.046048
0.0460428
0.0464851
0.0464341
0.0464385
0.0464411
0.0464412
0.0464413
0.0464372
0.0464323
0.0469275
0.0468682
0.0468728
0.0468776
0.0468778
0.046878
0.0468707
0.0469322
0.0474326
0.047436
0.04744
0.0474415
0.0474423
0.0474411
0.0474381
0.0474349
0.048013
0.0480133
0.0480137
0.0480146
0.0480146
0.0480141
0.0480135
0.0480135
0.0486819
0.0486794
0.0486785
0.0486786
0.0486786
0.0486784
0.0486788
0.0486804
0.0401777
0.0411647
0.0411599
0.0411605
0.0411605
0.0411603
0.0411621
0.0402002
0.0407417
0.042872
0.0428323
0.0428467
0.042856
0.0428337
0.042847
0.040797
0.0391039
0.0428265
0.0427847
0.0427975
0.0428061
0.0427858
0.0427991
0.0429935
0.0398834
0.0429749
0.0429333
0.0429465
0.0429554
0.0429346
0.0429492
0.0428325
0.0404387
0.0431436
0.0431025
0.0431154
0.0431234
0.0431043
0.0431195
0.0429831
0.0411045
0.0433844
0.0433358
0.0433307
0.0433189
0.043336
0.0433639
0.0432462
0.0418271
0.0436708
0.0436164
0.0436079
0.0435887
0.0436186
0.0436476
0.0435917
0.0425267
0.0439793
0.0439382
0.0439077
0.0438849
0.043931
0.043954
0.0439519
0.0432218
0.0443008
0.044287
0.0442331
0.0442202
0.0442646
0.0442885
0.0442863
0.0437999
0.0445623
0.0445854
0.0445755
0.0445745
0.0445761
0.0445821
0.0445198
0.0443365
0.0448176
0.0448394
0.044839
0.0448388
0.044839
0.0448356
0.044772
0.0448534
0.0451121
0.045114
0.045114
0.0451141
0.0451139
0.0451151
0.0450561
0.0453468
0.0454067
0.045411
0.0454108
0.0454109
0.0454108
0.0454114
0.0453471
0.0457978
0.0457314
0.0457356
0.0457358
0.045736
0.0457357
0.0457358
0.0456726
0.0461499
0.046089
0.0460934
0.0460948
0.0460953
0.0460942
0.0460927
0.04602
0.0465498
0.0464844
0.0464882
0.0464887
0.0464888
0.0464886
0.0464878
0.0464061
0.047002
0.0469261
0.0469282
0.0469284
0.0469284
0.0469283
0.0469282
0.0468373
0.0475166
0.0474269
0.0474277
0.0474276
0.0474276
0.0474276
0.0474279
0.0473248
0.0481082
0.048004
0.0480041
0.048004
0.0480039
0.0480041
0.0480042
0.0478973
0.0488783
0.0486782
0.0486771
0.0486769
0.0486769
0.0486769
0.0486777
0.0488783
0.0454259
0.0454348
0.0454317
0.0454315
0.0458138
0.0454322
0.0459253
0.0454285
0.0454346
0.0454315
0.0458197
0.0457177
0.0459358
0.0458665
0.0454234
0.0454291
0.0454243
0.0457191
0.0457114
0.0458671
0.0458596
0.0454247
0.0454245
0.0454265
0.0457117
0.0457147
0.04586
0.0458635
0.0454272
0.0454324
0.0454331
0.0457157
0.0458186
0.045865
0.0459351
0.0454176
0.0454337
0.0454349
0.0458133
0.0454314
0.0459249
0.0454326
0.0454381
0.0454773
0.0454601
0.0454373
0.0459638
0.0454508
0.0460803
0.0454372
0.0454635
0.0454586
0.045976
0.0459182
0.0460966
0.0460737
0.0454302
0.0454564
0.0454547
0.0459187
0.0459118
0.046074
0.0460702
0.0454321
0.0454553
0.0454543
0.0459122
0.0459158
0.0460706
0.0460735
0.0454396
0.0454597
0.0454618
0.045917
0.0459756
0.0460736
0.0460968
0.0454454
0.0454619
0.0454782
0.0459638
0.0454377
0.0460814
0.0454509
0.0454709
0.0455074
0.0454991
0.0454642
0.0461216
0.0455048
0.0462478
0.0454697
0.0455022
0.0454984
0.0461386
0.046128
0.0462659
0.0462972
0.045467
0.0454983
0.045496
0.046128
0.0461253
0.0462958
0.0462962
0.0454659
0.0454976
0.045495
0.0461257
0.0461282
0.0462965
0.0462973
0.0454726
0.0455002
0.0454995
0.0461281
0.0461387
0.0462976
0.0462651
0.0454912
0.0455015
0.0455071
0.0461226
0.0454643
0.0462477
0.0455046
0.0455011
0.0453393
0.0453829
0.045508
0.0462916
0.0453717
0.04642
0.0455009
0.045389
0.0453875
0.04631
0.0463574
0.0464392
0.0465446
0.0454956
0.0453876
0.0453633
0.0463549
0.0463561
0.0465385
0.0465398
0.0454968
0.0453649
0.0453787
0.0463564
0.0463566
0.0465401
0.0465403
0.0455011
0.0453909
0.0453832
0.0463578
0.0463088
0.0465449
0.0464365
0.0454978
0.0453882
0.0453358
0.0462908
0.0455078
0.0464178
0.0453711
0.0452878
0.0448115
0.0448522
0.0452675
0.046464
0.044818
0.04659
0.0452949
0.0448584
0.0448618
0.0464833
0.04661
0.0466105
0.0468093
0.0452637
0.0448599
0.0448231
0.0466032
0.046605
0.0468017
0.0468046
0.0452844
0.0448217
0.0448496
0.0466053
0.046605
0.0468048
0.0468036
0.0452885
0.0448644
0.0448527
0.0466103
0.0464804
0.0468099
0.0466069
0.0452321
0.0448571
0.0448093
0.0464616
0.0452664
0.0465873
0.0448175
0.0447163
0.0445377
0.0445136
0.044687
0.0466162
0.0445078
0.0465957
0.0447233
0.0445098
0.0445057
0.0466282
0.0469855
0.0466005
0.0471762
0.0446881
0.0445014
0.0444884
0.0469815
0.0469746
0.0471722
0.0471711
0.044712
0.0444867
0.0444983
0.0469747
0.0469809
0.0471707
0.0471714
0.044716
0.0445055
0.0445088
0.0469856
0.0466243
0.0471772
0.0465968
0.0446884
0.0445145
0.0445381
0.0466132
0.0446867
0.0465937
0.0445089
0.0445293
0.0447326
0.0447
0.0445269
0.0465956
0.0447011
0.0467216
0.0445159
0.0446935
0.0446817
0.0466
0.047208
0.0467266
0.0474335
0.0445032
0.0446777
0.0446731
0.0472039
0.0472039
0.0474296
0.0474432
0.0445097
0.0446726
0.0446768
0.047204
0.0472029
0.0474434
0.0474291
0.0445222
0.0446813
0.0446938
0.047209
0.0465967
0.0474343
0.0467266
0.0445602
0.0447005
0.0447328
0.0465942
0.0445282
0.0467235
0.0447033
0.0447706
0.0450091
0.0449866
0.0447723
0.0467668
0.0449883
0.0469421
0.0447524
0.0449806
0.0449674
0.0467716
0.047469
0.0469428
0.0476478
0.0447441
0.0449673
0.0449737
0.0474645
0.0474784
0.0476505
0.0476366
0.0447478
0.0449729
0.0449664
0.0474786
0.0474642
0.047637
0.0476508
0.0447646
0.0449674
0.0449803
0.0474697
0.0467719
0.0476489
0.0469408
0.0448019
0.0449848
0.0450086
0.0467688
0.0447744
0.0469407
0.0449889
0.0450598
0.0452971
0.0452941
0.0450609
0.0469277
0.0452927
0.0461168
0.045044
0.045294
0.0452912
0.0469276
0.0476465
0.0461081
0.0477876
0.0450494
0.0452895
0.0452841
0.0476488
0.0476339
0.0477918
0.0477847
0.045043
0.0452841
0.0452872
0.0476342
0.0476493
0.0477856
0.0477908
0.0450571
0.0452904
0.0452939
0.0476477
0.0469253
0.047788
0.046112
0.0450784
0.0452936
0.0452969
0.0469256
0.0450608
0.0461173
0.0452927
0.0453717
0.0456097
0.0456088
0.045372
0.0459289
0.0456096
0.0456197
0.0453704
0.0456087
0.0456082
0.0459188
0.0477903
0.0456188
0.0475669
0.0453656
0.0456077
0.0456072
0.0477958
0.0477794
0.0475762
0.0475351
0.0453682
0.045607
0.045608
0.0477803
0.0477955
0.0475373
0.047577
0.0453714
0.0456082
0.0456087
0.0477914
0.0459236
0.0475688
0.045619
0.0453728
0.0456088
0.0456097
0.0459289
0.045372
0.0456199
0.0456096
0.0456912
0.045954
0.0459557
0.0456923
0.0456672
0.0459549
0.0459802
0.0456916
0.0459572
0.0459617
0.0456677
0.047482
0.0459805
0.0460058
0.0456907
0.0459621
0.0459616
0.0474929
0.0474368
0.0460065
0.0460163
0.0456923
0.0459615
0.0459621
0.047439
0.0474942
0.0460162
0.0460065
0.045691
0.0459617
0.0459572
0.0474838
0.0456679
0.0460058
0.0459805
0.0456924
0.0459557
0.045954
0.0456674
0.0456923
0.0459802
0.0459549
0.0460492
0.0463341
0.0463393
0.0460457
0.0460262
0.0463361
0.0463692
0.046056
0.0463405
0.046343
0.0460267
0.0460296
0.0463698
0.0463802
0.0460564
0.0463435
0.0463444
0.0460302
0.0460381
0.0463809
0.0463869
0.0460564
0.0463444
0.0463435
0.0460381
0.0460302
0.0463869
0.0463809
0.0460511
0.046343
0.0463405
0.0460296
0.0460267
0.0463802
0.0463696
0.046045
0.0463394
0.0463341
0.0460262
0.0460457
0.0463688
0.0463361
0.0464401
0.0467569
0.0467619
0.0464379
0.0464193
0.0467592
0.0467961
0.0464441
0.0467635
0.0467693
0.0464203
0.0464314
0.0467973
0.046803
0.0464457
0.0467706
0.0467719
0.0464321
0.0464377
0.0468036
0.0468099
0.0464448
0.046772
0.0467706
0.0464377
0.0464321
0.0468099
0.0468036
0.0464412
0.0467693
0.0467635
0.0464314
0.0464202
0.046803
0.0467973
0.0464362
0.0467619
0.0467569
0.0464191
0.0464379
0.0467961
0.0467591
0.0468755
0.0472353
0.0472402
0.0468729
0.0468814
0.0472348
0.0472413
0.0468842
0.0472418
0.0472463
0.0468835
0.0468887
0.0472432
0.0472492
0.046886
0.0472473
0.0472485
0.0468907
0.0468956
0.0472521
0.0472567
0.0468853
0.0472487
0.0472473
0.0468956
0.0468907
0.0472567
0.0472521
0.0468773
0.0472463
0.0472418
0.0468887
0.0468835
0.0472492
0.0472432
0.0468704
0.0472402
0.0472353
0.0468814
0.0468728
0.0472413
0.0472348
0.0473692
0.047782
0.0477834
0.0473636
0.0473697
0.0477791
0.047785
0.0473751
0.0477839
0.0477859
0.0473717
0.0473782
0.0477869
0.0477896
0.0473774
0.0477869
0.047788
0.0473807
0.0473834
0.0477899
0.0477905
0.0473763
0.047788
0.0477869
0.0473834
0.0473807
0.0477905
0.0477899
0.0473707
0.0477859
0.0477839
0.0473782
0.0473717
0.0477896
0.0477869
0.0473649
0.0477834
0.047782
0.0473697
0.0473636
0.047785
0.0477791
0.0479306
0.0483365
0.048337
0.047929
0.0479342
0.0483372
0.0483385
0.0479332
0.0483376
0.0483385
0.0479352
0.0479364
0.0483392
0.0483396
0.0479349
0.0483391
0.0483393
0.0479366
0.047937
0.04834
0.0483402
0.0479339
0.0483393
0.0483391
0.047937
0.0479366
0.0483402
0.04834
0.0479311
0.0483385
0.0483376
0.0479364
0.0479352
0.0483396
0.0483392
0.0479298
0.048337
0.0483365
0.0479342
0.047929
0.0483385
0.0483372
0.0458126
0.0454258
0.0459252
0.0454226
0.0458069
0.0454232
0.0459196
0.0456596
0.045942
0.0458386
0.0458171
0.0456652
0.0459347
0.0458466
0.0456679
0.0458428
0.0458456
0.0456675
0.0456658
0.0458483
0.045844
0.0456627
0.045846
0.0458418
0.0456648
0.0456665
0.0458431
0.0458476
0.0458224
0.0458402
0.045941
0.0456648
0.0458169
0.0458464
0.0459348
0.045427
0.045927
0.0454239
0.0458072
0.0454227
0.0459203
0.045423
0.0459644
0.045448
0.0460814
0.0454279
0.0459589
0.0454455
0.046077
0.0459023
0.0461041
0.0460963
0.0459754
0.0459096
0.0460976
0.0461
0.0459081
0.0461003
0.0460981
0.0459112
0.0459065
0.0461022
0.0460972
0.0459056
0.0460988
0.0460996
0.0459056
0.0459105
0.0460961
0.0461016
0.045982
0.0460976
0.0461041
0.0459095
0.0459757
0.0461
0.0460984
0.0454284
0.0460843
0.0454461
0.0459598
0.0454277
0.0460786
0.0454452
0.0461225
0.0455065
0.0462483
0.0454594
0.0461188
0.0455015
0.0462476
0.0461633
0.0462751
0.0463719
0.0461406
0.0461656
0.0462725
0.0463698
0.0461639
0.0463739
0.0463686
0.0461682
0.0461632
0.0463737
0.0463688
0.0461663
0.0463696
0.0463728
0.0461621
0.0461676
0.0463676
0.0463731
0.0461467
0.0463717
0.0462758
0.0461656
0.0461415
0.0463698
0.0462732
0.0454606
0.0462509
0.0455043
0.0461205
0.0454592
0.0462488
0.0455013
0.0462923
0.045382
0.046422
0.0455056
0.0462927
0.0453704
0.0464246
0.0464448
0.0464518
0.0466693
0.0463184
0.0464412
0.0464533
0.0466627
0.0464405
0.0466682
0.0466632
0.0464454
0.0464413
0.0466669
0.0466671
0.0464449
0.0466641
0.0466675
0.04644
0.0464448
0.0466659
0.0466664
0.0463204
0.0466675
0.0464512
0.0464412
0.046319
0.0466627
0.0464534
0.0455091
0.0464232
0.0453783
0.0462936
0.0455053
0.0464249
0.0453692
0.0464661
0.0448273
0.046591
0.045266
0.0464687
0.044812
0.0465913
0.0467476
0.0466227
0.0469889
0.0464986
0.0467406
0.0466259
0.046982
0.0467412
0.0469855
0.0469813
0.0467444
0.0467476
0.0469848
0.0470275
0.0467453
0.0469813
0.0469857
0.0467464
0.046744
0.0470272
0.0469844
0.0464956
0.0469857
0.0466223
0.0467405
0.0464987
0.0469819
0.0466261
0.0452751
0.0465905
0.0448228
0.0464689
0.0452644
0.0465918
0.0448102
0.0466164
0.04451
0.0465927
0.0446758
0.0466191
0.0444942
0.0465951
0.0470499
0.0465977
0.0472589
0.0466357
0.0470417
0.0466109
0.0472763
0.0470349
0.0472567
0.047244
0.0470419
0.0471578
0.0472952
0.0479482
0.0470432
0.0472446
0.0472525
0.0471585
0.0470419
0.0479343
0.0472953
0.0466264
0.0472564
0.0465962
0.0470417
0.0466363
0.0472761
0.0466104
0.0446889
0.0465941
0.0445088
0.0466201
0.0446743
0.0465948
0.0444942
0.0465927
0.0446988
0.0467198
0.0445181
0.0465971
0.0446972
0.0467277
0.0472899
0.0467227
0.0475082
0.0466125
0.047315
0.0467353
0.0476341
0.0472762
0.0475078
0.0475135
0.0473406
0.0474518
0.0477658
0.0371562
0.0472842
0.0475144
0.0475072
0.0474236
0.0473409
0.0371051
0.0477666
0.0465963
0.0475068
0.0467244
0.0473147
0.0466119
0.0476339
0.0467357
0.0445275
0.0467227
0.0446987
0.0465967
0.0445184
0.0467286
0.0446977
0.0467651
0.0449865
0.0469439
0.0447677
0.0467717
0.0449817
0.0469488
0.0475422
0.0469457
0.0476652
0.0467778
0.0476854
0.0469556
0.0480474
0.0475481
0.0476681
0.0476535
0.0478393
0.036686
0.0482248
0.0557991
0.0475409
0.0476547
0.047666
0.036637
0.0478403
0.0559173
0.0482246
0.0467693
0.0476665
0.0469416
0.0476853
0.0467784
0.0480478
0.0469537
0.0447699
0.0469438
0.0449864
0.0467728
0.0447682
0.0469479
0.0449821
0.0469305
0.045293
0.0461385
0.0450561
0.0469362
0.0452934
0.0461256
0.0476647
0.046143
0.0478052
0.0469424
0.048067
0.0461242
0.0485169
0.0476519
0.0478094
0.0478249
0.0482518
0.0591581
0.048832
0.128711
0.0476636
0.0478262
0.0478075
0.0592999
0.0482516
0.128354
0.0488377
0.0469273
0.0478054
0.0461271
0.0480672
0.0469398
0.0485204
0.0461075
0.0450595
0.0461327
0.045293
0.0469345
0.0450565
0.0461132
0.0452936
0.0459483
0.0456098
0.0456191
0.0453723
0.0459319
0.0456102
0.0456264
0.0478075
0.0456197
0.0475892
0.0459283
0.0485291
0.0456289
0.0481548
0.0478246
0.0475965
0.0475776
0.0488544
0.132507
0.048378
0.144214
0.0478106
0.0475837
0.0475932
0.131843
0.0488609
0.142013
0.048379
0.0459372
0.047593
0.0456202
0.0485332
0.0459122
0.0481574
0.0456291
0.0453722
0.0456193
0.0456097
0.0459198
0.0453724
0.0456267
0.04561
0.0456663
0.0459554
0.0459806
0.0456928
0.0456727
0.0459583
0.0459896
0.0475028
0.0459814
0.0460074
0.0456757
0.0480449
0.0459917
0.0460699
0.0474792
0.0460078
0.04602
0.0482604
0.0460857
0.0390483
0.0475078
0.0460198
0.0460078
0.0482613
0.0390483
0.0460859
0.0456675
0.0460074
0.0459814
0.0480474
0.0456759
0.04607
0.0459918
0.0456923
0.0459806
0.0459554
0.045673
0.0456925
0.0459898
0.0459583
0.0460265
0.0463368
0.0463696
0.0460508
0.0460352
0.0463369
0.0463739
0.0460314
0.0463704
0.0463818
0.0460368
0.0460831
0.0463757
0.0463847
0.0460413
0.0463825
0.0463888
0.0460945
0.0467104
0.0463868
0.0463989
0.0460316
0.0463888
0.0463825
0.0467104
0.0460946
0.0463989
0.0463868
0.0460275
0.0463818
0.0463699
0.0460832
0.0460368
0.0463847
0.0463758
0.0460465
0.046369
0.0463368
0.0460352
0.0460508
0.046374
0.0463368
0.04642
0.0467598
0.0467962
0.0464375
0.046425
0.0467596
0.0467962
0.0464322
0.0467973
0.0468031
0.0464263
0.0464344
0.0467972
0.0468071
0.046439
0.0468038
0.0468115
0.0464368
0.0464471
0.0468094
0.0468149
0.0464329
0.0468115
0.0468038
0.0464471
0.0464368
0.0468149
0.0468094
0.0464208
0.0468031
0.0467973
0.0464344
0.0464263
0.0468071
0.0467972
0.0464382
0.0467962
0.0467597
0.046425
0.0464373
0.0467962
0.0467595
0.0468815
0.0472344
0.047241
0.0468731
0.0468814
0.0472334
0.0472407
0.0468894
0.047243
0.0472507
0.0468834
0.0468924
0.0472437
0.0472528
0.0468976
0.0472532
0.0472574
0.0468956
0.0469002
0.0472548
0.0472584
0.0468916
0.0472574
0.0472532
0.0469002
0.0468956
0.0472584
0.0472548
0.0468835
0.0472507
0.0472429
0.0468924
0.0468834
0.0472528
0.0472437
0.0468733
0.047241
0.0472344
0.0468814
0.0468731
0.0472407
0.0472334
0.0473693
0.0477786
0.0477856
0.0473615
0.0473694
0.0477775
0.0477867
0.0473794
0.0477874
0.0477902
0.0473726
0.0473808
0.0477885
0.0477909
0.047384
0.0477904
0.0477908
0.0473827
0.0473849
0.0477911
0.0477914
0.0473815
0.0477908
0.0477904
0.0473849
0.0473827
0.0477914
0.0477911
0.0473715
0.0477902
0.0477874
0.0473808
0.0473726
0.0477909
0.0477885
0.0473628
0.0477856
0.0477786
0.0473694
0.0473615
0.0477867
0.0477775
0.0479349
0.0483383
0.0483394
0.0479284
0.0479358
0.0483385
0.0483399
0.0479368
0.04834
0.0483403
0.0479365
0.0479374
0.0483403
0.0483406
0.0479372
0.0483405
0.0483406
0.0479375
0.0479377
0.0483407
0.0483408
0.047937
0.0483406
0.0483405
0.0479377
0.0479375
0.0483408
0.0483407
0.0479355
0.0483403
0.04834
0.0479374
0.0479365
0.0483406
0.0483403
0.0479292
0.0483394
0.0483383
0.0479358
0.0479284
0.0483399
0.0483385
0.0458072
0.0454251
0.0459202
0.0454268
0.0458119
0.0454238
0.0459251
0.0456648
0.0459361
0.0458465
0.0458222
0.0456624
0.0459409
0.0458388
0.0456644
0.0458482
0.0458429
0.0456608
0.0456686
0.0458398
0.0458462
0.0456667
0.0458434
0.0458477
0.0456661
0.0456588
0.0458441
0.045839
0.0458171
0.0458469
0.0459349
0.0456577
0.045822
0.045837
0.0459404
0.0454229
0.0459216
0.0454233
0.0458129
0.0454277
0.0459257
0.0454238
0.0459597
0.0454472
0.0460784
0.0454284
0.0459645
0.0454469
0.0460824
0.0459096
0.0460996
0.0461001
0.0459819
0.0459015
0.0461041
0.0460929
0.0459054
0.0461025
0.0460961
0.0459034
0.0459087
0.0460967
0.0460983
0.0459107
0.0460968
0.0461018
0.0459064
0.0459026
0.0460961
0.0460956
0.0459758
0.0461008
0.0460985
0.0459007
0.0459813
0.0460947
0.0461029
0.0454279
0.04608
0.0454452
0.0459649
0.0454284
0.0460821
0.0454467
0.0461203
0.0455045
0.0462488
0.0454615
0.0461236
0.0455048
0.0462488
0.0461657
0.0462746
0.0463699
0.0461467
0.0461592
0.0462758
0.0463664
0.0461622
0.0463742
0.046368
0.0461633
0.0461638
0.0463702
0.0463679
0.0461678
0.0463686
0.0463732
0.0461618
0.0461621
0.0463663
0.0463687
0.0461415
0.0463708
0.0462724
0.0461617
0.0461453
0.0463706
0.0462739
0.0454592
0.0462498
0.0455021
0.0461233
0.0454614
0.0462491
0.0455048
0.0462937
0.0453755
0.0464251
0.045509
0.0462924
0.0453755
0.0464211
0.0464412
0.0464551
0.0466626
0.0463205
0.0464389
0.0464515
0.046663
0.0464405
0.0466674
0.0466666
0.0464425
0.0464397
0.0466659
0.0466631
0.0464449
0.0466669
0.0466665
0.0464381
0.0464408
0.0466609
0.0466631
0.0463178
0.0466635
0.0464512
0.0464434
0.0463186
0.046668
0.0464501
0.0455067
0.046424
0.0453721
0.0462931
0.0455089
0.0464228
0.0453753
0.0464691
0.0448156
0.0465919
0.0452716
0.046465
0.0448185
0.0465894
0.0467405
0.0466265
0.0469819
0.0464959
0.0467412
0.0466224
0.046982
0.0467472
0.0469845
0.0470284
0.0467439
0.0467414
0.0469846
0.0469825
0.046744
0.0470277
0.0469845
0.0467389
0.0467407
0.0469786
0.0469802
0.0464963
0.0469819
0.0466246
0.0467462
0.0464946
0.0469873
0.0466215
0.0452675
0.0465897
0.0448122
0.0464668
0.0452714
0.0465911
0.0448185
0.0466203
0.044495
0.0465947
0.0446862
0.046614
0.0445081
0.0465918
0.0470418
0.0466119
0.0472766
0.0466263
0.0470443
0.0465961
0.0472522
0.0471614
0.0472957
0.0479081
0.047044
0.0470379
0.0472545
0.0472448
0.0470421
0.0479496
0.0472955
0.0470353
0.0470393
0.0472431
0.0472479
0.046635
0.0472769
0.0466114
0.0470465
0.0466261
0.0472571
0.0465959
0.0446757
0.0465971
0.044494
0.0466161
0.0446863
0.0465926
0.0445079
0.0465966
0.0446976
0.0467288
0.0445272
0.0465924
0.0446987
0.0467223
0.0473152
0.0467363
0.0476344
0.0465962
0.0472833
0.046724
0.0475008
0.047373
0.0477647
0.0372264
0.0472862
0.0472772
0.0475076
0.0475161
0.047341
0.0372071
0.0477662
0.0472759
0.0472797
0.0475148
0.0475077
0.046613
0.0476346
0.0467353
0.0472888
0.0465958
0.0475075
0.0467224
0.0445181
0.046728
0.0446973
0.0465927
0.0445271
0.0467199
0.0446986
0.0467731
0.0449822
0.0469475
0.0447699
0.0467674
0.0449864
0.046941
0.0476857
0.0469559
0.0480478
0.0467689
0.0475339
0.0469415
0.047667
0.036786
0.048225
0.0558579
0.0475414
0.0475508
0.0476712
0.0476573
0.0478398
0.0558804
0.0482243
0.0475494
0.0475413
0.0476555
0.0476678
0.0467777