/*--------------------------------*- C++ -*----------------------------------*\
| =========                 |                                                 |
| \\      /  F ield         | OpenFOAM: The Open Source CFD Toolbox           |
|  \\    /   O peration     | Version:  2206                                  |
|   \\  /    A nd           | Website:  www.openfoam.com                      |
|    \\/     M anipulation  |                                                 |
\*---------------------------------------------------------------------------*/
FoamFile
{
    version     2.0;
    format      ascii;
    arch        "LSB;label=32;scalar=64";
    class       volScalarField;
    location    "200";
    object      omega;
}
// * * * * * * * * * * * * * * * * * * * * * * * * * * * * * * * * * * * * * //

dimensions      [0 0 -1 0 0 0 0];

internalField   nonuniform List<scalar> 
198968
(
8.41256
7.5148
7.51583
7.51675
7.51678
7.51581
7.51472
8.42128
8.90918
9.06623
9.10606
9.10487
9.09958
9.10828
9.0919
8.91915
10.3946
9.12864
9.182
9.18096
9.17664
9.18466
9.16786
9.10066
10.2576
9.3807
9.4446
9.44386
9.43914
9.44826
9.42726
9.35025
10.3296
9.63422
9.72702
9.73214
9.72878
9.73656
9.69902
9.59182
10.667
9.84935
9.94887
9.97342
9.98885
9.96333
9.92401
9.80713
11.0095
10.0741
10.1976
10.2374
10.263
10.2185
10.1768
10.0214
11.3824
10.3624
10.446
10.5269
10.5542
10.4913
10.4559
10.2911
11.8159
10.7248
10.7339
10.8454
10.856
10.8092
10.7711
10.6624
12.1588
11.2188
11.1842
11.2488
11.2512
11.2446
11.2357
11.1619
12.4696
11.7831
11.77
11.8285
11.8296
11.8267
11.8213
11.7243
12.8539
12.4399
12.4527
12.5167
12.5173
12.5162
12.5084
12.3842
13.5051
13.2519
13.259
13.3264
13.3269
13.326
13.3241
13.1773
14.7029
14.3278
14.3346
14.3229
14.323
14.3229
14.3236
14.1421
16.1069
15.6595
15.6652
15.6666
15.6673
15.6661
15.667
15.4473
17.7993
17.2656
17.2699
17.2705
17.2707
17.2704
17.2701
17.0036
19.6682
19.2361
19.2384
19.2387
19.2388
19.2386
19.2383
18.8929
22.2444
21.714
21.7148
21.7148
21.7148
21.7148
21.7149
21.2718
25.5388
24.9285
24.9262
24.9252
24.925
24.9256
24.9272
24.3893
30.6544
29.2464
29.243
29.2396
29.2389
29.241
29.2449
30.6544
10.0287
6.82014
6.83822
6.84691
6.84709
6.84441
6.83088
6.77499
10.1633
7.13902
7.15493
7.16332
7.16308
7.1608
7.14872
7.08948
10.2998
7.42469
7.43681
7.44376
7.4427
7.4417
7.43253
7.37823
10.4377
7.7432
7.74967
7.75642
7.75511
7.75442
7.74709
7.69856
10.5947
8.10362
8.1053
8.10871
8.10836
8.1069
8.10596
8.05667
10.7312
8.51595
8.51497
8.51484
8.51379
8.51454
8.51631
8.47686
10.9126
8.97538
8.97272
8.97216
8.97058
8.97245
8.97353
8.95253
11.1443
9.48316
9.48248
9.48104
9.47941
9.48197
9.48246
9.45564
11.4149
10.0504
10.051
10.0499
10.049
10.0504
10.0509
10.0445
11.7912
10.686
10.6874
10.6891
10.6891
10.6878
10.6872
10.6753
12.2247
11.4141
11.4097
11.4106
11.4102
11.41
11.4127
11.404
12.7031
12.2476
12.2416
12.2397
12.2396
12.2403
12.2456
12.2458
13.3215
13.2045
13.2026
13.2012
13.2006
13.2012
13.2039
13.2005
14.3404
14.3281
14.3281
14.33
14.3298
14.3303
14.3278
14.3233
15.6709
15.6679
15.6831
15.6889
15.6896
15.6892
15.6826
15.6661
17.2792
17.2831
17.2968
17.3004
17.3003
17.2992
17.2947
17.2794
19.2655
19.2638
19.2728
19.2745
19.2745
19.2754
19.2686
19.253
21.7603
21.7639
21.7718
21.7661
21.7622
21.77
21.7702
21.7487
25.0025
25.0013
24.9992
24.9945
24.9919
24.9965
25.0014
24.9978
29.3243
29.3112
29.2972
29.2908
29.2883
29.2929
29.3053
29.3164
10.8571
9.32413
9.45606
9.47057
9.4696
9.46553
9.44007
8.312
11.0531
9.63545
9.78225
9.80395
9.80521
9.79747
9.76027
8.53618
11.1875
9.8997
10.0445
10.0692
10.0737
10.0617
10.021
8.7114
11.3326
9.94911
9.94027
9.93418
9.91773
9.93973
9.93945
8.85072
11.4826
9.93964
9.92436
9.91562
9.8974
9.92143
9.92486
8.96237
11.6865
9.9083
9.89474
9.88412
9.85946
9.89035
9.89774
9.07757
12.0075
9.84658
9.8361
9.82487
9.79415
9.83158
9.84029
9.25658
12.3698
9.80938
9.78743
9.77132
9.74246
9.77874
9.79313
9.62708
15.9155
10.0322
9.98413
9.96003
9.94547
9.96783
9.9939
9.98016
15.7769
10.5965
10.5377
10.5125
10.5043
10.5217
10.5521
10.5988
15.2635
11.3134
11.2674
11.2445
11.2354
11.2508
11.278
11.3134
14.7151
12.1354
12.1094
12.0875
12.0951
12.0884
12.1128
12.133
14.5261
13.0766
13.0729
13.0634
13.0566
13.0644
13.0744
13.0757
14.3777
14.1749
14.1689
14.1672
14.1627
14.1711
14.1699
14.1745
15.4802
15.4839
15.5069
15.5268
15.525
15.5252
15.4997
15.48
17.0409
17.0645
17.0854
17.1001
17.1035
17.0974
17.0808
17.055
18.9611
18.9898
19.0216
19.0586
19.0615
19.0536
19.0133
18.9773
21.7693
21.4223
21.4524
21.481
21.4868
21.4747
21.4448
21.7911
25.0138
24.5444
24.5517
24.5679
24.5736
24.5634
24.5489
25.02
29.3018
29.292
29.295
29.299
29.3007
29.2969
29.2922
29.2962
10.8653
9.46981
10.9014
10.9519
10.9458
10.9345
10.8467
8.3003
11.063
9.81977
11.6062
11.7095
11.7018
11.6882
11.5172
8.5275
11.2305
10.1221
12.2588
12.4362
12.4256
12.4103
12.125
8.70198
11.3876
9.92124
12.6427
13.0848
13.0742
13.0699
12.6228
8.84527
11.5381
9.9301
13.137
13.894
13.8765
13.8759
13.104
8.95828
11.7795
9.91589
13.6683
14.8052
14.7823
14.7837
13.6227
9.07149
12.0273
9.83601
14.2534
15.8572
15.8254
15.833
14.1936
9.24498
12.5042
9.76829
14.8889
17.0766
17.0337
17.0456
14.8104
9.61319
16.216
9.97199
15.3521
18.3781
18.285
18.3696
15.3903
9.97031
15.5201
10.5437
15.3386
19.4216
19.3163
19.3985
15.3645
10.5986
14.8782
11.2723
15.208
20.563
20.4119
20.55
15.2381
11.315
14.7013
12.1155
14.1512
21.1753
20.9484
21.1767
14.1735
12.1303
14.5289
13.0747
13.1592
20.4812
20.2657
20.4657
13.1737
13.0752
14.3771
14.1727
14.0955
16.0583
15.8559
16.0522
14.0942
14.1714
15.4802
15.4888
15.412
15.4068
15.4178
15.4076
15.4088
15.4844
17.0413
17.0729
17.0005
17.0481
17.0724
17.0454
16.9934
17.0594
18.9559
19.003
19.049
19.0869
19.1148
19.0764
19.0397
18.9826
21.7361
21.4108
21.4555
21.508
21.521
21.4965
21.4439
21.7656
24.9956
24.5394
24.5766
24.5852
24.5866
24.584
24.5724
25.0103
29.2954
29.297
29.303
29.305
29.3054
29.3042
29.3009
29.296
10.8838
9.45045
10.8891
10.9277
10.9277
10.9241
10.8351
8.29525
11.0595
9.80514
11.5935
11.6855
11.6852
11.68
11.505
8.52239
11.2305
10.1128
12.2483
12.4146
12.4136
12.4074
12.1136
8.693
11.3872
9.92246
12.6266
13.0679
13.0622
13.0646
12.6077
8.83617
11.541
9.92169
13.1212
13.8695
13.8622
13.8663
13.0877
8.94787
11.7911
9.90482
13.6554
14.7731
14.7644
14.7704
13.6051
9.05975
12.0333
9.82348
14.2449
15.8173
15.8015
15.8183
14.174
9.2365
12.5237
9.75546
14.8867
17.0278
17.0013
17.0328
14.7872
9.60414
16.2702
9.95323
15.3231
18.3201
18.2553
18.3225
15.3582
9.96206
15.5559
10.529
15.3022
19.3878
20.9454
19.3818
15.3436
10.5971
14.8629
11.2714
15.1378
20.5693
34.2797
20.5369
15.2032
11.3147
14.7535
12.1125
14.0354
21.2077
60.024
21.1737
14.1514
12.1318
14.5564
13.0731
13.084
20.8321
114.65
20.7403
13.1632
13.0749
14.3793
14.1708
14.0895
16.335
16.2721
14.0906
14.1708
15.4811
15.5042
15.4389
15.4504
15.6551
15.4464
15.4364
15.4962
17.0407
17.0684
17.021
17.0607
17.0982
17.0514
17.016
17.0585
18.9529
19.0017
19.0484
19.1056
19.1282
19.0902
19.0392
18.9826
21.7265
21.4038
21.4613
21.5139
21.5257
21.504
21.4443
21.7607
24.9937
24.5347
24.5826
24.5883
24.5897
24.5874
24.5781
25.0093
29.2962
29.2984
29.3039
29.3059
29.3064
29.3051
29.3021
29.297
9.82296
9.47864
10.8697
10.898
10.8884
10.8924
10.8314
8.30953
10.5544
9.8276
11.5476
11.5972
11.5854
11.592
11.4948
8.53658
11.1685
10.1237
12.1667
12.2469
12.233
12.2404
12.0965
8.70601
11.3822
9.91781
12.6623
12.9205
12.9148
12.9209
12.6728
8.84147
11.5475
9.91772
13.1527
13.6071
13.6039
13.6043
13.1478
8.95156
11.7673
9.90909
13.6673
14.3743
14.3742
14.3697
13.6665
9.06277
12.0425
9.82829
14.2235
15.2547
15.2582
15.2491
14.2301
9.22796
12.4476
9.76679
14.8436
16.2677
16.2772
16.258
14.8406
9.60951
16.1603
9.98342
15.3459
18.4516
18.3872
18.4446
15.3949
9.9738
15.5508
10.5488
15.3283
19.3828
19.3362
19.3688
15.3793
10.5983
15.012
11.2813
15.1906
20.5574
20.4857
20.553
15.2505
11.3152
14.6788
12.1167
14.1242
21.1725
20.9794
21.1502
14.1821
12.1312
14.5199
13.0744
13.1557
20.5228
20.2693
20.4793
13.1801
13.0762
14.3767
14.1726
14.0998
16.0677
15.8241
16.013
14.0988
14.1726
15.4799
15.4854
15.4096
15.4054
15.4174
15.4061
15.4086
15.4823
17.0427
17.0708
16.9961
17.0449
17.0562
17.0427
16.9926
17.0601
18.9615
19.0003
19.0487
19.0782
19.1028
19.0714
19.0391
18.9844
21.7571
21.4142
21.4561
21.5005
21.5163
21.489
21.446
21.7815
25.0036
24.538
24.5741
24.5828
24.5855
24.5814
24.5676
25.0151
29.2951
29.2941
29.2996
29.3032
29.3036
29.302
29.2967
29.2933
10.0544
8.23283
8.24297
8.23931
8.23416
8.24559
8.23427
7.95016
10.2242
8.42851
8.44277
8.43976
8.43309
8.44731
8.42568
8.06026
10.3659
8.54082
8.56092
8.55588
8.547
8.56537
8.5363
8.11126
10.487
8.60018
8.63387
8.63012
8.61876
8.64212
8.60307
8.17312
10.6723
8.67286
8.69962
8.69715
8.68854
8.70915
8.67715
8.28997
10.8677
8.81893
8.84002
8.84015
8.83214
8.85087
8.8263
8.52243
11.1389
9.09924
9.11094
9.10999
9.10451
9.11742
9.10188
8.87936
11.4099
9.51321
9.51527
9.51196
9.50858
9.51681
9.51176
9.3513
11.7168
9.97801
9.97344
9.96288
9.95826
9.96648
9.97351
9.97713
12.0353
10.6016
10.5918
10.5799
10.5763
10.5825
10.5911
10.593
12.3346
11.3142
11.3057
11.2982
11.2959
11.2961
11.3047
11.3126
12.859
12.1302
12.1243
12.1155
12.1124
12.1139
12.1253
12.1345
13.4721
13.0753
13.0722
13.0666
13.0612
13.0674
13.0729
13.0768
14.305
14.1708
14.1667
14.1675
14.1635
14.1699
14.1671
14.1734
15.6613
15.4811
15.5068
15.5189
15.5169
15.5197
15.4988
15.4806
17.2701
17.0603
17.0781
17.0888
17.0887
17.0895
17.0727
17.0536
19.2518
18.9836
19.0046
19.0264
19.0271
19.028
18.9945
19.2701
21.7645
21.7829
21.8043
21.8122
21.8162
21.8101
21.7941
21.7761
25.0175
25.0192
25.0217
25.0264
25.0267
25.024
25.0204
25.0199
29.3178
29.3004
29.2943
29.2949
29.2952
29.2939
29.2965
29.3074
8.43423
7.51255
7.51523
7.51652
7.51653
7.51559
7.5146
8.41234
8.91267
6.72122
6.70168
6.70659
6.71079
6.70128
6.71555
8.90897
10.2713
7.13641
7.11732
7.12255
7.12702
7.11721
7.1307
6.77768
10.2028
7.4647
7.44196
7.44803
7.4532
7.44215
7.45633
7.36225
10.2454
7.81952
7.79021
7.79597
7.80071
7.7903
7.80545
7.71551
10.4229
8.24701
8.20784
8.20131
8.1905
8.20737
8.23048
8.14394
10.735
8.75383
8.70358
8.69393
8.67577
8.70533
8.73192
8.67805
11.0951
9.33676
9.29362
9.26083
9.2373
9.28607
9.31024
9.28605
11.5384
10.0007
9.98561
9.92078
9.90578
9.95814
9.9872
9.94126
11.9474
10.6627
10.6956
10.6817
10.6803
10.6828
10.6906
10.5629
12.4056
11.3843
11.4178
11.4172
11.4168
11.4174
11.4123
11.2745
12.9531
12.2461
12.2472
12.2477
12.2478
12.2473
12.2499
12.1052
13.6141
13.1993
13.2058
13.2055
13.2056
13.2055
13.2075
13.0363
14.4739
14.3236
14.3311
14.3322
14.3326
14.3316
14.332
14.1445
15.862
15.6618
15.6724
15.6777
15.6798
15.6754
15.6697
15.4356
17.5132
17.2734
17.2838
17.286
17.2862
17.2853
17.2818
16.9924
19.5608
19.2505
19.2553
19.2563
19.2564
19.256
19.255
18.899
22.1505
21.7382
21.739
21.7385
21.7385
21.7386
21.7399
21.2846
25.5166
24.9646
24.9634
24.9629
24.9623
24.9633
24.9643
24.4125
30.6544
29.2915
29.2845
29.2828
29.2826
29.2829
29.2887
30.6544
9.9409
9.95016
9.92887
9.91721
12.6643
9.91847
13.0156
9.94306
9.93376
9.92838
12.6714
12.9246
13.0372
13.4293
9.92408
9.92548
9.90797
12.9179
12.9197
13.4208
13.4285
9.93248
9.90802
9.91747
12.9202
12.9183
13.4291
13.4244
9.94145
9.9313
9.92863
12.9244
12.6662
13.4304
13.0314
9.95544
9.93399
9.94875
12.6593
9.91892
13.0108
9.92005
9.92759
9.92204
9.90459
9.9187
13.1393
9.91471
13.5188
9.92639
9.90775
9.90098
13.1646
13.6094
13.5487
14.1731
9.90515
9.89786
9.876
13.6002
13.61
14.1615
14.1777
9.91533
9.87612
9.88919
13.6106
13.6047
14.1783
14.1684
9.92706
9.90388
9.9024
13.6108
13.1584
14.1755
13.541
9.94607
9.90992
9.91981
13.1341
9.92029
13.5121
9.91636
9.90062
9.87157
9.85793
9.91075
13.6562
9.85958
14.0769
9.89574
9.85936
9.85251
13.6818
14.3754
14.089
15.0221
9.86767
9.84866
9.8197
14.3628
14.3808
15.0073
15.0303
9.8835
9.81943
9.83927
14.3814
14.3703
15.0309
15.0158
9.89761
9.85516
9.854
14.378
13.6733
15.0249
14.0781
9.91428
9.86333
9.86866
13.6486
9.91246
14.0671
9.86107
9.84341
9.8107
9.79325
9.83204
14.2263
9.77155
14.679
9.83755
9.79266
9.78383
14.2416
15.2559
14.6995
15.9989
9.80309
9.77814
9.74847
15.2398
15.2654
15.981
16.0128
9.82393
9.74718
9.76986
15.266
15.2483
16.0136
15.9902
9.83932
9.78546
9.78851
15.2587
14.2299
16.0022
14.6858
9.85216
9.79771
9.80873
14.2159
9.83335
14.6673
9.77247
9.79534
9.94151
9.9061
9.77052
14.8429
9.89004
15.3205
9.7838
9.89969
9.8853
14.865
16.2663
15.3606
17.1116
9.75001
9.87754
9.86085
16.2496
16.2849
17.1
17.1402
9.7701
9.85926
9.87337
16.2856
16.2592
17.141
17.1107
9.79008
9.88521
9.89834
16.2698
14.8507
17.1159
15.3445
9.81377
9.90835
9.94141
14.831
9.77063
15.309
9.89186
9.99372
10.4349
10.3863
9.98063
15.3997
10.3799
15.3761
9.96995
10.3752
10.3597
15.3607
18.4643
15.3379
19.2363
9.94845
10.3495
10.3418
18.4494
18.3862
19.2352
19.1953
9.95858
10.341
10.3481
18.3873
18.4442
19.196
19.2316
9.98507
10.359
10.3755
18.4649
15.3476
19.2373
15.3238
10.0339
10.3877
10.435
15.3877
9.98273
15.3629
10.3832
10.5504
11.125
11.0857
10.5429
15.3813
11.0829
15.303
10.5222
11.077
11.0612
15.3436
19.3804
15.253
20.3983
10.5048
11.0526
11.0433
19.3797
19.3376
20.4017
20.3361
10.5111
11.0426
11.0514
19.3389
19.3753
20.3377
20.3939
10.5379
11.0605
11.0775
19.381
15.3307
20.3965
15.2413
10.5966
11.0875
11.1252
15.3688
10.5462
15.2856
11.0874
11.276
11.919
11.8945
11.2768
15.2535
11.8991
14.3568
11.2512
11.8842
11.8644
15.2019
20.5532
14.3029
21.1507
11.2358
11.8638
11.8752
20.5549
20.4855
21.159
20.9699
11.2428
11.8745
11.8634
20.4871
20.5477
20.9719
21.174
11.2677
11.8643
11.8841
20.5508
15.1905
21.1685
14.2908
11.3136
11.8925
11.9177
15.2364
11.281
14.34
11.8999
12.1148
12.828
12.8249
12.1174
14.1871
12.8233
13.19
12.0882
12.8229
12.8124
14.1388
21.1522
13.1645
20.6246
12.0956
12.81
12.8
21.1606
20.9713
20.6801
20.4067
12.0872
12.801
12.8063
20.9733
21.1749
20.4121
20.6955
12.1089
12.8116
12.8227
21.1698
14.1265
20.6444
13.1629
12.1327
12.8244
12.8274
14.1694
12.1171
13.1814
12.8229
13.0744
13.883
13.879
13.0746
13.1818
13.8806
13.9497
13.0653
13.878
13.8746
13.163
20.4844
13.949
16.3707
13.0546
13.8723
13.8689
20.5276
20.2591
16.4096
16.1482
13.0608
13.8684
13.8731
20.264
20.5464
16.1541
16.4175
13.0729
13.8748
13.878
20.5018
13.1562
16.3754
13.949
13.0766
13.879
13.883
13.1726
13.0745
13.9498
13.8805
14.1699
15.1362
15.1419
14.1728
14.0988
15.1383
15.2321
14.1696
15.1472
15.1636
14.0997
16.0371
15.2324
15.3165
14.1642
15.1648
15.1621
16.074
15.8262
15.3182
15.331
14.1715
15.1614
15.1646
15.8307
16.0815
15.3308
15.3182
14.1689
15.1635
15.1472
16.0409
14.0997
15.3165
15.2324
14.1749
15.1419
15.1361
14.0988
14.1727
15.232
15.1383
15.4997
16.6384
16.6598
15.4856
15.4085
16.6461
16.7826
15.5252
16.6644
16.6746
15.4095
15.4045
16.7854
16.8273
15.5258
16.6764
16.6797
15.4054
15.4169
16.8298
16.8534
15.5267
16.6797
16.6763
15.4168
15.4053
16.8534
16.8298
15.5069
16.6745
16.6643
15.4045
15.4095
16.8273
16.7845
15.4839
16.6598
16.6386
15.4085
15.4856
16.7811
16.646
17.0806
18.4686
18.4908
17.0712
16.9927
18.4781
18.6465
17.0974
18.4978
18.524
16.9967
17.0426
18.652
18.6781
17.1034
18.5297
18.5354
17.0451
17.0677
18.6811
18.7098
17.1
18.5356
18.5297
17.0677
17.0451
18.7098
18.6811
17.0854
18.524
18.4978
17.0426
16.996
18.6781
18.652
17.0647
18.4907
18.4686
16.9914
17.071
18.6465
18.478
19.0133
20.7588
20.7831
19.0007
19.0392
20.7556
20.7876
19.0536
20.7911
20.8139
19.0487
19.0732
20.7973
20.8278
19.0614
20.8189
20.8244
19.0826
19.1052
20.8428
20.8662
19.0586
20.8253
20.8189
19.1052
19.0826
20.8662
20.8428
19.0216
20.8139
20.7911
19.0732
19.0487
20.8278
20.7973
18.9898
20.7831
20.7588
19.0392
19.0006
20.7876
20.7556
21.4448
23.691
23.6988
21.4147
21.446
23.6734
23.7057
21.4747
23.7011
23.7125
21.456
21.4902
23.7166
23.7324
21.4863
23.718
23.7243
21.5034
21.5178
23.7345
23.7379
21.481
23.7244
23.718
21.5178
21.5034
23.7379
23.7345
21.4524
23.7125
23.7011
21.4902
21.456
23.7324
23.7166
21.4223
23.6988
23.691
21.446
21.4147
23.7057
23.6734
24.5489
27.0097
27.013
24.5384
24.5676
27.0141
27.0226
24.5634
27.0166
27.023
24.574
24.5814
27.0276
27.0301
24.5735
27.0269
27.028
24.5826
24.585
27.0329
27.034
24.5679
27.0281
27.0268
24.585
24.5826
27.034
27.0329
24.5517
27.023
27.0166
24.5814
24.574
27.0301
27.0276
24.5444
27.013
27.0097
24.5676
24.5384
27.0226
27.0141
12.6247
9.9367
12.9789
9.92433
12.608
9.92497
12.9633
13.0748
13.014
13.6715
12.6272
13.065
12.9934
13.6565
13.0745
13.6849
13.6664
13.0694
13.0675
13.661
13.6583
13.0867
13.6691
13.6843
13.0637
13.0679
13.654
13.6594
12.6447
13.6675
13.0112
13.0649
12.627
13.6566
12.9931
9.92418
12.9842
9.93189
12.6084
9.92315
12.9637
9.92365
13.1053
9.9294
13.4881
9.92518
13.0896
9.91459
13.4717
13.8841
13.536
14.5553
13.1234
13.8671
13.5176
14.5325
13.8774
14.569
14.5443
13.8716
13.8687
14.5369
14.5336
13.897
14.5474
14.5682
13.8643
13.87
14.5287
14.5352
13.1407
14.5485
13.5327
13.8672
13.1229
14.5326
13.5165
9.93296
13.4932
9.92439
13.0898
9.92384
13.4711
9.91322
13.6252
9.87262
14.0475
9.90858
13.6085
9.85663
14.0296
14.7955
14.1066
15.5688
13.6584
14.7712
14.094
15.5407
14.7833
15.582
15.5491
14.7754
14.7719
15.5423
15.5339
14.8084
15.5526
15.581
14.7667
14.7737
15.5282
15.5405
13.6719
15.5588
14.1016
14.7714
13.657
15.5409
14.0914
9.91908
14.0514
9.86782
13.6075
9.9072
14.0271
9.85525
14.1979
9.78036
14.653
9.82779
14.1794
9.76438
14.631
15.8485
14.7301
16.7413
14.2495
15.8193
14.7231
16.7111
15.8267
16.7576
16.7142
15.82
15.8105
16.7088
16.6932
15.861
16.7181
16.7566
15.8045
15.8182
16.6865
16.7068
14.2558
16.7287
14.7232
15.8195
14.2466
16.7113
14.7193
9.83997
14.6565
9.77682
14.1765
9.82644
14.627
9.76333
14.8156
9.88365
15.2988
9.75884
14.7921
9.86699
15.2735
17.0642
15.3944
18.0952
14.893
17.0342
15.408
18.0644
17.0354
18.1153
18.0579
17.031
17.0126
18.0596
18.0331
17.0811
18.0585
18.1174
17.0055
17.029
18.0249
18.0574
14.8903
18.0766
15.3921
17.0345
14.8888
18.0648
15.4025
9.77138
15.2966
9.88254
14.7877
9.758
15.2674
9.86706
15.3992
10.3803
15.3717
9.95356
15.3573
10.3573
15.3388
18.3881
15.3417
19.2808
15.33
18.3224
15.3106
19.2404
18.2855
19.2873
19.1815
18.3188
18.2667
19.2438
20.1993
18.3772
19.1858
19.2836
18.2649
18.3198
20.2062
19.2449
15.3481
19.265
15.3285
18.3236
15.3237
19.2412
15.3013
9.97287
15.3673
10.3803
15.3521
9.95393
15.3308
10.3582
15.3784
11.0781
15.3076
10.528
15.344
11.0776
15.2537
19.4219
15.2691
20.4325
15.314
19.3829
15.208
20.3887
19.3182
20.4214
20.2711
19.3879
20.8944
20.4142
32.1265
19.4262
20.2777
20.4192
20.9066
19.389
32.1592
20.4159
15.334
20.4067
15.2481
19.3837
15.3045
20.3898
15.1946
10.5436
15.2989
11.0784
15.3357
10.5289
15.2421
11.0785
15.2608
11.8962
14.3771
11.2703
15.2041
11.8903
14.3231
20.5866
14.3333
21.1796
15.1559
20.5394
14.2384
21.1695
20.4139
21.1832
20.9511
20.5688
34.241
21.2016
58.0341
20.5674
20.9576
21.1813
34.2805
20.5707
58.0333
21.2015
15.1984
21.1866
14.301
20.5405
15.1414
21.1711
14.2152
11.2724
14.3606
11.8963
15.1915
11.2712
14.3053
11.891
14.2074
12.8233
13.2
12.1119
14.1543
12.8225
13.1703
21.1814
13.1742
20.6215
14.0645
21.1764
13.0987
20.8713
20.9502
20.6545
20.4047
21.2102
60.0394
20.9548
109.813
21.1741
20.4195
20.6515
60.0258
21.2101
109.48
20.9572
14.1348
20.6293
13.1614
21.1779
14.0408
20.8758
13.0833
12.1155
13.1894
12.8232
14.1359
12.1124
13.1606
12.8226
13.1877
13.8804
13.9459
13.0731
13.1645
13.8792
13.9434
20.4713
13.9467
16.3955
13.0968
20.7445
13.9413
16.6602
20.266
16.4166
16.1749
20.8373
114.799
16.7187
170.618
20.4922
16.1967
16.4071
114.473
20.8402
169.827
16.7199
13.1513
16.4097
13.9468
20.7486
13.0845
16.6663
13.9411
13.0747
13.946
13.8801
13.1574
13.0731
13.9433
13.8786
14.0942
15.14
15.2327
14.1718
14.0907
15.1496
15.2596
16.0566
15.2349
15.3175
14.0896
16.2867
15.2629
15.3566
15.8551
15.3182
15.3323
16.3435
15.3639
15.6749
16.0706
15.332
15.3181
16.3442
15.6749
15.3638
14.0955
15.3175
15.2349
16.291
14.0894
15.3565
15.2631
14.1721
15.2326
15.14
14.0908
14.1705
15.2603
15.1497
15.4089
16.6491
16.7847
15.5042
15.4365
16.6488
16.8018
15.4076
16.7876
16.8332
15.4389
15.4461
16.8087
16.8392
15.4181
16.836
16.86
15.4501
15.655
16.8464
16.8873
15.4067
16.86
16.836
15.655
15.45
16.8873
16.8463
15.4119
16.8332
16.7856
15.4461
15.4389
16.8392
16.8091
15.4887
16.7821
16.6489
15.4366
15.5042
16.8021
16.6486
16.9956
18.4811
18.6472
17.069
17.016
18.4798
18.6472
17.0455
18.6522
18.6787
17.021
17.0503
18.6519
18.6966
17.0724
18.6822
18.7172
17.0596
17.0974
18.7071
18.7324
17.0481
18.7172
18.6822
17.0974
17.0596
18.7324
18.7071
16.9988
18.6786
18.6522
17.0503
17.0211
18.6966
18.6519
17.0723
18.6472
18.4806
17.0161
17.0684
18.6472
18.4795
19.0397
20.7535
20.7863
19.0018
19.0392
20.7486
20.7852
19.0764
20.7963
20.8354
19.0484
19.0904
20.8
20.8465
19.1148
20.8485
20.8697
19.1051
19.1265
20.8563
20.8748
19.0868
20.8697
20.8485
19.1265
19.1051
20.8748
20.8563
19.049
20.8354
20.7963
19.0904
19.0484
20.8465
20.8
19.0028
20.7863
20.7535
19.0392
19.0017
20.7852
20.7486
21.4439
23.6707
23.7097
21.4038
21.4443
23.6641
23.7164
21.4965
23.7202
23.7365
21.4613
21.504
23.7268
23.7406
21.521
23.738
23.7397
21.5139
21.5257
23.7416
23.7431
21.508
23.7397
23.7379
21.5257
21.5139
23.7431
23.7416
21.4555
23.7365
23.7202
21.504
21.4613
23.7406
23.7268
21.4107
23.7097
23.6707
21.4443
21.4038
23.7164
23.6641
24.5724
27.0211
27.0288
24.5347
24.5781
27.0225
27.0317
24.584
27.0325
27.0349
24.5826
24.5874
27.0344
27.0363
24.5866
27.0361
27.0367
24.5883
24.5897
27.0375
27.0382
24.5852
27.0367
27.0361
24.5897
24.5883
27.0382
27.0375
24.5766
27.0349
27.0325
24.5874
24.5826
27.0363
27.0344
24.5394
27.0288
27.0211
24.5781
24.5347
27.0317
27.0225
12.6083
9.92915
12.9636
9.92349
12.6226
9.93132
12.9788
13.065
12.9978
13.6567
12.6447
13.0645
13.0111
13.6572
13.0628
13.6624
13.6534
13.0795
13.0759
13.6764
13.6679
13.0681
13.6555
13.6596
13.0654
13.0702
13.6563
13.6658
12.6271
13.6593
12.9932
13.072
12.642
13.6687
13.008
9.92449
12.9682
9.92507
12.6294
9.9223
12.9839
9.93154
13.0897
9.91897
13.4711
9.93237
13.1052
9.92354
13.4874
13.8673
13.5218
14.5328
13.1406
13.8686
13.5326
14.5368
13.8638
14.5387
14.5283
13.889
13.8789
14.56
14.5461
13.8702
14.5305
14.5354
13.867
13.8777
14.5328
14.5467
13.123
14.5357
13.5167
13.8812
13.1374
14.5523
13.5292
9.92532
13.4759
9.91486
13.1105
9.9326
13.4937
9.92388
13.6076
9.86099
14.0273
9.91802
13.6241
9.86592
14.0452
14.7715
14.0973
15.541
13.6718
14.7762
14.1014
15.547
14.7664
15.5443
15.5277
14.8002
14.7855
15.5728
15.5528
14.7738
15.53
15.5406
14.7715
14.7863
15.5363
15.5561
13.6572
15.5443
14.092
14.7925
13.6685
15.5656
14.0999
9.90895
14.0323
9.85723
13.6309
9.91841
14.0521
9.86639
14.1767
9.76753
14.627
9.83779
14.1953
9.77456
14.6497
15.8196
14.7255
16.7114
14.2555
15.8259
14.7228
16.7161
15.804
16.7109
16.6854
15.8528
15.8311
16.7476
16.721
15.8183
16.688
16.7069
15.8135
15.835
16.6998
16.7265
14.2474
16.715
14.7219
15.8452
14.2542
16.7375
14.7221
9.82844
14.6343
9.76477
14.2015
9.83826
14.6569
9.77536
14.7877
9.86843
15.2672
9.76918
14.8119
9.8809
15.2932
17.0346
15.4035
18.065
14.8897
17.0381
15.3911
18.0655
17.0041
18.0586
18.0226
17.0717
17.0429
18.106
18.0668
17.0291
18.0222
18.0576
17.0204
17.0493
18.0392
18.0804
14.8922
18.0653
15.4089
17.0604
14.8891
18.0911
15.3908
9.75908
15.2736
9.8671
14.8194
9.77011
15.3006
9.88298
15.3518
10.3582
15.3304
9.97202
15.3893
10.3802
15.3588
18.324
15.3081
19.2412
15.3476
18.3732
15.3278
19.2586
18.2564
19.2508
20.2279
18.3851
18.3048
19.2895
19.1875
18.3201
20.2049
19.2451
18.2844
18.3517
19.1768
19.2711
15.3317
19.2465
15.3124
18.3781
15.3483
19.2907
15.3329
9.95368
15.3474
10.3575
15.3967
9.9736
15.371
10.3799
15.3353
11.0784
15.2412
10.5436
15.365
11.0784
15.2887
19.3837
15.2035
20.3887
15.3333
19.3993
15.2471
20.4059
20.9402
20.4226
32.1168
19.4318
19.3245
20.4355
20.2872
19.3892
32.1112
20.4159
19.315
19.4144
20.2778
20.4254
15.3159
20.3949
15.2102
19.4328
15.3386
20.4316
15.2556
10.5282
15.2652
11.0778
15.3776
10.5432
15.3058
11.0779
15.1906
11.8909
14.3044
11.2724
15.2403
11.8962
14.3474
20.5391
14.2268
21.1682
15.1974
20.5589
14.3004
21.2146
34.2113
21.2073
58.0294
20.588
20.4305
21.2095
20.9624
20.5706
57.9795
21.2013
20.4208
20.5745
20.9602
21.1817
15.1582
21.1751
14.2401
20.5857
15.2068
21.1857
14.3159
11.2705
14.3375
11.8905
15.2588
11.272
14.3752
11.8961
14.1352
12.8226
13.1604
12.1154
14.1774
12.8232
13.1847
21.1749
13.088
20.8679
14.134
21.2137
13.161
20.6189
60.0382
20.9639
109.854
21.2078
20.9611
20.6302
20.4102
21.2099
109.535
20.9573
20.9588
21.182
20.4188
20.6572
14.066
20.8815
13.0967
21.1871
14.1508
20.6419
13.1676
12.112
13.1748
12.8225
14.2054
12.1153
13.1991
12.8232
13.1573
13.8787
13.9433
13.0746
13.1748
13.8801
13.9461
20.7402
13.9412
16.6528
13.1511
20.4895
13.947
16.4193
114.935
16.7325
169.326
20.4951
20.2768
16.4093
16.1794
20.8404
168.602
16.7209
20.2803
20.5023
16.1846
16.4018
13.0944
16.6694
13.941
20.4965
13.159
16.4003
13.9469
13.073
13.943
13.8786
13.187
13.0746
13.946
13.8801
14.0908
15.1497
15.2604
14.172
14.0942
15.14
15.2327
16.2784
15.2631
15.3576
14.0957
16.0799
15.2351
15.3172
15.3644
15.675
16.0723
15.8596
15.3185
15.332
16.345
15.675
15.3641
15.8647
16.0592
15.3322
15.3191
14.0894
15.3569
15.2628
16.0604
14.0957
15.3186
15.2352
14.1706
15.2596
15.1495
14.0942
14.172
15.2328
15.14
15.4366
16.6486
16.8021
15.4887
15.4089
16.6488
16.7822
15.4467
16.809
16.8401
15.4122
15.4077
16.786
16.833
15.6551
16.8471
16.8882
15.4071
15.4179
16.8359
16.848
15.4503
16.8882
16.8471
15.418
15.4078
16.8481
16.8364
15.4388
16.8401
16.8086
15.4091
15.4123
16.8337
16.788
15.5041
16.8017
16.6488
15.4089
15.4887
16.7847
16.649
17.0161
18.4795
18.6472
17.0722
16.9935
18.4805
18.6474
17.0514
18.6518
18.6976
16.9992
17.0459
18.6529
18.6791
17.0982
18.7079
18.7337
17.0484
17.0595
18.6825
18.7155
17.0607
18.7337
18.7079
17.0595
17.0485
18.7155
18.6825
17.0209
18.6976
18.6518
17.0459
17.0008
18.6791
18.6529
17.069
18.6472
18.4798
16.9956
17.0728
18.6474
18.481
19.0392
20.7486
20.7852
19.0027
19.0398
20.7533
20.7863
19.0903
20.8
20.8465
19.0494
19.0754
20.7963
20.8348
19.1282
20.8563
20.8748
19.0841
19.1134
20.847
20.8691
19.1056
20.8748
20.8563
19.1134
19.0841
20.8691
20.847
19.0484
20.8465
20.8
19.0754
19.0494
20.8348
20.7963
19.0018
20.7852
20.7486
19.0398
19.0028
20.7863
20.7533
21.4443
23.6641
23.7164
21.4106
21.4439
23.6701
23.7097
21.504
23.7268
23.7406
21.4555
21.4964
23.7202
23.7365
21.5257
23.7416
23.7431
21.5076
21.5208
23.7379
23.7397
21.5139
23.7431
23.7416
21.5208
21.5076
23.7397
23.7379
21.4613
23.7406
23.7268
21.4964
21.4555
23.7365
23.7202
21.4038
23.7164
23.6641
21.4439
21.4106
23.7097
23.6701
24.5781
27.0225
27.0317
24.5396
24.5724
27.0212
27.0288
24.5874
27.0344
27.0363
24.5766
24.584
27.0325
27.0349
24.5897
27.0375
27.0382
24.5851
24.5866
27.0361
27.0367
24.5883
27.0382
27.0375
24.5866
24.5851
27.0367
27.0361
24.5826
27.0363
27.0344
24.584
24.5766
27.0349
27.0325
24.5347
27.0317
27.0225
24.5724
24.5396
27.0288
27.0212
12.6547
9.92522
13.0061
9.95128
9.93809
9.94457
9.92605
12.9229
13.0322
13.4286
9.94111
9.93891
9.92849
9.92389
12.9237
13.4311
13.4333
9.93143
9.92087
9.91606
9.90536
12.913
13.4271
13.4157
9.9213
9.93495
9.90593
9.91984
12.6628
13.429
13.0275
9.94304
9.9413
9.92842
9.92854
9.91892
13.0305
9.92022
9.9414
9.95119
9.9296
9.94592
13.1294
9.92141
13.5072
9.94263
9.92525
9.91694
9.90214
13.6089
13.542
14.1731
9.9275
9.92176
9.9032
9.89577
13.615
14.177
14.1836
9.91393
9.90289
9.88789
9.87541
13.5949
14.1763
14.1559
9.90353
9.91774
9.87638
9.8919
13.1544
14.1727
13.5378
9.92645
9.927
9.90115
9.90236
9.92045
13.5355
9.9162
9.9284
9.94329
9.90566
9.91728
13.6437
9.86497
14.0619
9.91258
9.8983
9.86649
9.85567
14.3753
14.0795
15.0208
9.89864
9.89039
9.85552
9.84719
14.3871
15.0272
15.0377
9.88237
9.86785
9.83923
9.82263
14.3571
15.0288
15.0011
9.86893
9.88647
9.82395
9.84359
13.6723
15.0212
14.0917
9.89597
9.89758
9.85314
9.85387
9.9121
14.0916
9.85925
9.9017
9.91174
9.85903
9.86461
14.2106
9.77444
14.6605
9.84973
9.84106
9.80643
9.79033
15.254
14.6874
15.9959
9.84082
9.83236
9.7896
9.77917
15.2731
16.0045
16.0216
9.82428
9.80685
9.77076
9.75341
15.2333
16.0114
15.9738
9.80814
9.82879
9.75437
9.77561
14.2446
15.9973
14.7024
9.83834
9.83921
9.78492
9.78842
9.83101
14.6905
9.77046
9.84448
9.84795
9.79416
9.80584
14.8219
9.89411
15.3002
9.81101
9.79215
9.9394
9.90198
16.2632
15.3403
17.1078
9.79089
9.77926
9.89817
9.88079
16.2938
17.1224
17.1519
9.7708
9.75474
9.87258
9.86355
16.2421
17.1335
17.0911
9.7555
9.77569
9.86378
9.87713
14.8661
17.1042
15.3594
9.78483
9.79001
9.88584
9.89819
9.76865
15.3185
9.88875
9.79616
9.81104
9.90676
9.93969
15.3844
10.3853
15.358
10.0326
9.98934
10.4373
10.3812
18.4582
15.33
19.2292
9.98466
9.96535
10.3746
10.3545
18.3916
19.2457
19.1875
9.95722
9.95042
10.3454
10.3425
18.4289
19.1994
19.22
9.95052
9.96164
10.3424
10.3499
15.3549
19.2318
15.3373
9.97033
9.98494
10.3599
10.3752
9.97964
15.3832
10.3797
9.99437
10.0326
10.387
10.4347
15.3642
11.0873
15.2863
10.5995
10.5438
11.1283
11.0907
19.3732
15.2537
20.3905
10.5364
10.5165
11.0777
11.0555
19.3304
20.412
20.3255
10.5079
10.5053
11.0478
11.0437
19.3665
20.3448
20.4037
10.5051
10.5127
11.0436
11.0533
15.3431
20.4063
15.2525
10.5223
10.5376
11.0614
11.0772
10.5428
15.3125
11.0828
10.5512
10.5964
11.0867
11.1249
15.2372
11.8993
14.3406
11.3161
11.2817
11.9162
11.8945
20.5451
14.3065
21.1602
11.2702
11.2478
11.8887
11.8787
20.4741
21.1798
21.0034
11.2409
11.2362
11.8772
11.8761
20.5568
20.9869
21.159
11.2361
11.2449
11.8757
11.8645
15.2014
21.1581
14.3022
11.2515
11.2673
11.8647
11.8836
11.2767
14.369
11.8989
11.277
11.3133
11.8918
11.9181
14.1701
12.8228
13.1817
12.1304
12.1133
12.8271
12.8202
21.1613
13.1681
20.6166
12.1099
12.0987
12.8198
12.8129
20.9984
20.6711
20.419
12.0974
12.0964
12.8106
12.8001
21.1602
20.4318
20.6782
12.0962
12.088
12.8001
12.8104
14.1381
20.6357
13.1655
12.0885
12.1083
12.8126
12.8224
12.1172
13.1938
12.823
12.1122
12.1342
12.8239
12.8276
13.1728
13.8804
13.9498
13.0764
13.0735
13.8828
13.879
20.4876
13.9489
16.3697
13.0724
13.0653
13.878
13.8747
20.2722
16.4245
16.1504
13.0637
13.0544
13.8728
13.8697