/*--------------------------------*- C++ -*----------------------------------*\
| =========                 |                                                 |
| \\      /  F ield         | OpenFOAM: The Open Source CFD Toolbox           |
|  \\    /   O peration     | Version:  2206                                  |
|   \\  /    A nd           | Website:  www.openfoam.com                      |
|    \\/     M anipulation  |                                                 |
\*---------------------------------------------------------------------------*/
FoamFile
{
    version     2.0;
    format      ascii;
    arch        "LSB;label=32;scalar=64";
    class       volScalarField;
    location    "200";
    object      p;
}
// * * * * * * * * * * * * * * * * * * * * * * * * * * * * * * * * * * * * * //

dimensions      [0 2 -2 0 0 0 0];

internalField   nonuniform List<scalar> 
198968
(
-0.0208826
-0.0145552
-0.0266763
-0.0299805
-0.0297053
-0.0264261
-0.0142379
-0.0208473
-0.0785333
-0.00738119
-0.00475076
0.00051399
0.00569503
0.00561141
-0.00612936
-0.0785358
-0.0225903
-0.00866119
0.000974049
0.0118689
0.0187538
0.0192975
0.0134128
0.000222071
-0.0195232
-0.01095
0.00245373
0.0151012
0.0233423
0.0256698
0.0218866
0.0119753
-0.0273427
-0.015448
0.00274447
0.0191576
0.029359
0.0320409
0.0282087
0.0174958
-0.0412709
-0.0232558
0.00178367
0.0232156
0.0353268
0.0374574
0.0322687
0.0210661
-0.0625964
-0.0366166
-0.00384478
0.0232102
0.0368606
0.0375657
0.0313036
0.0203547
-0.0877026
-0.0571088
-0.0189163
0.00991497
0.0232054
0.0239785
0.0198453
0.0150244
-0.121138
-0.0861592
-0.0472662
-0.0214938
-0.0103192
-0.00827689
-0.00615273
0.00117301
-0.177401
-0.144116
-0.11148
-0.0922281
-0.0852929
-0.0827564
-0.0694473
-0.0364661
-0.245319
-0.229664
-0.227618
-0.231744
-0.233811
-0.224418
-0.186174
-0.106263
-0.289349
-0.324037
-0.386786
-0.439731
-0.457113
-0.427731
-0.344853
-0.199276
-0.251043
-0.351597
-0.489275
-0.599013
-0.633139
-0.578191
-0.450757
-0.262176
-0.104472
-0.23195
-0.380313
-0.491751
-0.527337
-0.479658
-0.372525
-0.225335
0.0923748
0.00306473
-0.082392
-0.13891
-0.160209
-0.153522
-0.127156
-0.0866802
0.247034
0.215458
0.201469
0.201678
0.194806
0.16747
0.11975
0.0571265
0.317252
0.321559
0.351719
0.380924
0.382683
0.343364
0.263264
0.145358
0.305674
0.333694
0.382746
0.422456
0.42887
0.391698
0.309647
0.179136
0.264117
0.287232
0.345348
0.387632
0.39609
0.365783
0.298077
0.188977
0.147217
0.22508
0.2841
0.32347
0.331607
0.307318
0.255048
0.147432
-0.00180036
0.000424621
0.00470885
0.00902454
0.0107606
0.00893928
0.00600008
0.00314755
-0.0021694
0.000460848
0.0170722
0.0364354
0.0445864
0.0363973
0.0214741
0.0101796
-0.0048244
-0.0037831
0.0214534
0.0484069
0.0585317
0.0460931
0.0244094
0.0117798
-0.00418093
0.00384521
0.0200694
0.0338857
0.0400901
0.0372904
0.0269579
0.0145825
-0.00907168
0.00381482
0.0236725
0.0390961
0.0461013
0.0441474
0.0337751
0.0196139
-0.0207159
0.00343124
0.0342163
0.0581169
0.0677983
0.0618461
0.0450322
0.0249748
-0.0462444
0.00139195
0.0483729
0.086368
0.0997488
0.0864576
0.0584629
0.026853
-0.0881303
-0.0260822
0.0460522
0.104446
0.122415
0.0942618
0.0542813
0.0211196
-0.0749879
-0.00641283
0.0635914
0.108979
0.122141
0.106303
0.0711183
0.0398025
-0.124984
-0.0471362
0.0366999
0.0966201
0.112641
0.0847935
0.0401175
0.0141316
-0.235457
-0.169857
-0.0989394
-0.0421065
-0.0270664
-0.0595647
-0.0919322
-0.0721917
-0.382043
-0.404901
-0.450772
-0.47768
-0.484758
-0.467719
-0.404823
-0.248647
-0.451927
-0.64192
-0.917479
-1.15091
-1.21175
-1.06421
-0.782588
-0.439152
-0.307967
-0.576829
-0.924154
-1.22288
-1.3014
-1.11421
-0.790071
-0.438935
0.00446716
-0.164501
-0.318508
-0.412113
-0.434402
-0.39768
-0.30721
-0.186111
0.280264
0.242102
0.273391
0.326034
0.337406
0.275923
0.179092
0.0837276
0.412245
0.438675
0.529741
0.619033
0.637553
0.559689
0.413703
0.222913
0.408789
0.46264
0.55913
0.636814
0.651921
0.58757
0.45352
0.250399
0.335765
0.400368
0.49017
0.5563
0.569449
0.520053
0.409621
0.232983
0.241604
0.3211
0.414205
0.474512
0.486829
0.447585
0.358699
0.219102
-0.00941813
-0.00303777
0.00664052
0.0163516
0.0217437
0.0188844
0.0143471
0.00436811
-0.0135394
-0.00373353
0.0195651
0.0436862
0.0546503
0.0522188
0.0442383
0.0273137
-0.00750762
-0.123672
0.0565454
0.239101
0.300699
0.183245
0.0298291
0.0638262
0.0180986
0.0142167
0.0445566
0.0677321
0.0793923
0.0717894
0.0499429
0.0282732
0.0214543
0.0214854
0.0442092
0.0560811
0.0636883
0.0667276
0.0550585
0.0306408
0.00769348
0.0308741
0.0663183
0.091671
0.104609
0.103667
0.0778416
0.0344316
0.00196246
0.0553709
0.107079
0.16577
0.191642
0.174853
0.119776
0.0328486
-0.523276
0.0534142
0.164123
0.291705
0.338353
0.285516
0.19337
-0.00334024
-0.0835114
0.0819841
0.268479
0.419762
0.469872
0.394991
0.253481
0.140047
-0.145595
0.0908153
0.357341
0.555907
0.621039
0.517227
0.322032
0.164559
-0.338139
-0.0293291
0.297386
0.594261
0.702988
0.526221
0.240969
0.0763578
-0.637153
-0.448702
-0.313372
-0.0666756
0.0510041
-0.133696
-0.342882
-0.284112
-0.866991
-1.11189
-1.71177
-2.24863
-2.41396
-2.14992
-1.55808
-0.877746
-0.629137
-1.26504
-2.36635
-3.62501
-4.17461
-3.32129
-2.07697
-1.07159
-0.0215855
-0.466544
-0.851111
-1.01699
-1.0476
-0.982102
-0.786654
-0.48336
0.5076
0.355925
0.563803
0.953082
1.13343
0.864229
0.478396
0.206213
0.87051
0.625546
0.955858
1.29069
1.41074
1.21976
0.863664
0.549411
0.600332
0.679827
0.896507
1.10272
1.17594
1.0579
0.821304
0.448588
0.489073
0.556414
0.711025
0.847467
0.893354
0.821586
0.665518
0.361222
0.348897
0.460374
0.601521
0.694905
0.714473
0.653955
0.520219
0.313803
-0.00213752
0.00960679
0.0169504
0.0174989
0.0212347
0.0163116
0.0217806
0.00272357
0.0116373
0.0149666
0.0353237
0.0516513
0.0553418
0.0469099
0.0354844
0.017295
0.0319554
0.0169661
0.0837143
0.109837
0.113577
0.0907218
0.0683203
0.0496102
0.0374382
0.0350619
0.0618042
0.0816969
0.0896743
0.0881734
0.0732378
0.0350814
0.0447453
0.0381294
0.068662
0.0911588
0.102429
0.0985834
0.0753614
0.0390349
0.0407957
0.0665915
0.106009
0.14143
0.15901
0.148433
0.10881
0.0451774
0.0656339
0.120587
0.177468
0.251852
0.281233
0.25441
0.173831
0.0504848
-0.645193
0.117344
0.288672
0.481745
0.539066
0.461058
0.304208
0.00307106
-0.0721009
0.134479
0.49062
0.887596
0.940958
0.857306
0.424101
0.226659
-0.123046
0.254134
0.727243
1.17097
1.32305
1.12392
0.693796
0.352454
-0.352112
0.218772
1.07269
2.09972
2.56233
1.97205
0.967118
0.372072
-0.895328
-0.397364
0.66163
2.66484
4.14385
2.49032
0.453154
-0.170255
-1.46058
-2.03105
-2.92185
-2.59496
-0.512711
-2.7382
-2.8032
-1.56193
-1.1451
-2.72397
-6.43607
-14.4712
-22.2552
-13.7323
-5.75462
-2.20466
0.0293216
-0.624744
-1.27565
-0.296471
2.05364
-0.33931
-1.24601
-0.734885
0.887137
1.02164
2.08801
4.91485
6.71771
4.54866
1.85825
0.597603
1.33158
1.17474
2.11831
3.20188
3.63907
2.95173
1.85469
0.977703
0.827055
1.02848
1.45565
1.88121
2.03048
1.78877
1.31378
0.665916
0.62954
0.760709
1
1.2137
1.28112
1.17233
0.928853
0.488288
0.438346
0.583478
0.769799
0.894326
0.920792
0.839983
0.664234
0.397972
0.00350312
0.0157522
0.0202243
0.0182721
0.0206009
0.0128575
0.0222796
0.0005302
0.0289059
0.0286491
0.0368349
0.0350934
0.0295797
0.0273842
0.0272955
0.0117238
0.0498413
0.0800081
0.110945
0.111023
0.115125
0.0682976
0.0548184
0.0414773
0.0425865
0.0367443
0.0676874
0.0905938
0.0934119
0.0958879
0.0770309
0.0288466
0.0513584
0.0448959
0.0803264
0.103594
0.114939
0.109577
0.082284
0.0342956
0.0523873
0.0828011
0.122863
0.155843
0.17177
0.158794
0.115562
0.0411689
0.0884994
0.155589
0.210439
0.278733
0.303366
0.271782
0.186382
0.0434381
-0.677272
0.162544
0.360553
0.546291
0.598973
0.508693
0.32994
0.00886912
-0.0595806
0.18301
0.642837
1.03964
1.11429
1.0175
0.515715
0.256434
-0.103378
0.34971
0.965793
1.54859
1.83756
1.48272
0.905272
0.436977
-0.330636
0.384601
1.68769
3.30345
3.81419
3.13754
1.51068
0.522617
-0.978348
-0.252018
1.92747
7.55336
14.7171
7.05033
1.43887
-0.0598651
-1.7397
-2.48642
-3.35474
9.3929
117.514
6.75547
-3.39774
-1.90696
-1.39981
-3.64873
-11.4671
-56.2531
-49.134
-9.70593
-2.86506
0.0701883
-0.559565
-0.165231
18.2225
133.83
15.3891
-0.470062
-0.74562
1.07581
1.43482
3.86192
10.9108
16.7277
9.79673
3.35872
0.863568
1.51479
1.44441
2.75063
4.40641
5.0658
4.01537
2.37072
1.18806
0.887662
1.17681
1.70871
2.25088
2.4382
2.13642
1.52968
0.725203
0.66314
0.839875
1.11277
1.35972
1.43878
1.31147
1.03178
0.520418
0.459257
0.613027
0.810574
0.943168
0.971436
0.885334
0.698932
0.418093
0.00167446
0.0079695
0.00985528
0.00855528
0.010819
0.0119796
0.01476
0.00178112
0.0189363
0.0115623
0.00879125
0.0096916
0.0124656
0.0234336
0.0302581
0.0211146
0.0398007
0.0560492
0.0310187
-0.0729026
-0.0983923
-0.0119071
0.166214
0.0956033
0.0378205
0.0478148
0.0722904
0.0912952
0.0971731
0.0966306
0.0776347
0.0502807
0.0405236
0.0488798
0.0739424
0.0911726
0.100791
0.0965939
0.0776138
0.0473394
0.0306765
0.0712846
0.103864
0.127114
0.14202
0.13382
0.103161
0.0513239
0.0463184
0.118882
0.158659
0.208229
0.229545
0.217834
0.16162
0.0579366
-0.602803
0.11679
0.24706
0.370483
0.401201
0.374957
0.282881
0.0066654
-0.0640467
0.118738
0.426868
0.674768
0.637585
0.636149
0.389572
0.205178
-0.118771
0.205968
0.661099
1.06112
1.20066
1.02232
0.628267
0.302312
-0.352056
0.134837
0.930956
1.84014
2.2477
1.73058
0.836114
0.286417
-0.841389
-0.447185
0.441104
2.34579
3.61715
2.16133
0.298727
-0.215161
-1.31808
-1.79428
-2.71867
-2.73542
-1.36202
-2.81026
-2.61025
-1.38001
-1.02249
-2.29735
-5.60847
-12.9649
-19.2121
-12.2624
-5.02821
-1.87969
0.00264644
-0.600689
-1.2882
-0.568579
1.14965
-0.631937
-1.24674
-0.68321
0.777225
0.836791
1.79312
4.07403
5.38271
3.78559
1.59567
0.480192
1.21459
1.03556
1.80643
2.65245
2.98161
2.46007
1.5883
0.861991
0.7148
0.943484
1.312
1.67437
1.80725
1.59315
1.18107
0.558174
0.563752
0.715556
0.929738
1.12665
1.18787
1.08816
0.861777
0.426528
0.398401
0.527267
0.692824
0.802874
0.82612
0.754771
0.598427
0.359424
0.000294096
-0.00539653
-0.00864381
-0.0115929
-0.0113444
-0.0079252
-0.00503613
-0.00588661
0.0065237
0.00835669
-0.00180871
-0.0110099
-0.0107669
0.0010382
0.0113817
0.00252589
0.0209848
0.0220617
0.0044036
-0.0486822
-0.0645314
-0.00824892
0.0458377
0.0234511
0.0280869
0.0371532
0.0390108
0.0348997
0.0356874
0.0426297
0.0472489
0.0264378
0.0274936
0.0426253
0.0569985
0.0685184
0.0741967
0.0711417
0.0639034
0.0366786
0.0127387
0.0384659
0.0702193
0.088945
0.0961891
0.0939267
0.0823596
0.0522629
-0.0151177
0.0339173
0.0900855
0.116889
0.124626
0.124559
0.111
0.0829568
-0.14593
0.0178141
0.147742
0.156119
0.150321
0.17988
0.16764
0.158727
-0.000327342
0.0815403
0.193919
0.273924
0.294346
0.265477
0.189298
0.123252
-0.0145086
0.0693793
0.229882
0.368134
0.410056
0.343532
0.210678
0.0817405
-0.162374
-0.0469291
0.133803
0.328805
0.398422
0.291632
0.104348
-0.0385756
-0.427898
-0.402626
-0.378099
-0.266464
-0.20677
-0.291648
-0.378185
-0.363042
-0.64594
-0.923762
-1.39901
-1.81567
-1.9486
-1.72187
-1.26816
-0.804086
-0.529434
-1.03217
-1.79997
-2.60616
-2.92912
-2.4139
-1.59109
-0.881203
-0.0985781
-0.417385
-0.692308
-0.866242
-0.912542
-0.829878
-0.637542
-0.357862
0.3131
0.248664
0.416266
0.649526
0.751881
0.592196
0.354808
0.231296
0.474215
0.639648
0.793841
1.03241
1.12171
0.984531
0.720808
0.332852
0.462295
0.536412
0.675641
0.792942
0.81956
0.727365
0.548146
0.303702
0.38672
0.455841
0.567079
0.651788
0.669371
0.607085
0.47378
0.267544
0.289029
0.37734
0.485656
0.558016
0.57298
0.525448
0.419818
0.256134
-0.0211733
-0.0142369
-0.0267442
-0.0298567
-0.0298203
-0.026438
-0.0143717
-0.0207196
-0.0792754
0.00785691
0.00246328
-0.00327415
-0.0034219
-0.00111426
-0.00696813
-0.0773824
-0.00234182
0.00832986
0.00764541
0.00356593
0.00295469
0.00754968
0.00804822
-0.0105467
0.0127194
0.0152649
0.0185916
0.0206202
0.0220957
0.0225668
0.019249
0.00831892
0.0156022
0.0202342
0.026717
0.0319988
0.0348854
0.0346684
0.0298853
0.0171181
0.0142787
0.0226548
0.0352762
0.0443169
0.0483181
0.048096
0.0419005
0.0263093
0.00709917
0.0257759
0.0489612
0.0623507
0.0669783
0.0658763
0.0568319
0.0382396
-0.00510828
0.0335658
0.0712129
0.0916994
0.0973329
0.0908312
0.0705013
0.0476993
0.00306166
0.0424167
0.0881905
0.121339
0.13142
0.115575
0.08211
0.0431338
-0.038479
0.0107164
0.0657189
0.106787
0.119321
0.10108
0.0658829
0.0309115
-0.128356
-0.0798668
-0.0360405
-0.00258658
0.00854198
-0.00398752
-0.0205794
-0.0202184
-0.244856
-0.236018
-0.25353
-0.26719
-0.26744
-0.251413
-0.206771
-0.123831
-0.309585
-0.383657
-0.510234
-0.613239
-0.637606
-0.564703
-0.422315
-0.237644
-0.236611
-0.369378
-0.543227
-0.681983
-0.716006
-0.624751
-0.454755
-0.255785
-0.0578999
-0.163387
-0.260254
-0.32159
-0.336372
-0.305785
-0.236162
-0.139398
0.112316
0.0669779
0.0551098
0.0615902
0.0614394
0.0435432
0.0198886
0.00194709
0.206348
0.201568
0.228588
0.258628
0.26272
0.228911
0.166094
0.0877088
0.22536
0.243394
0.281845
0.31635
0.322329
0.289574
0.221505
0.121097
0.213642
0.221314
0.269379
0.305343
0.312245
0.28582
0.227705
0.126639
0.147626
0.20594
0.257268
0.292514
0.299785
0.276966
0.228231
0.147846
0.0494343
0.0187785
0.0510765
0.0484817
0.0779974
0.0478598
0.0738142
0.0717316
0.0400775
0.0625699
0.0728053
0.0969462
0.0698855
0.0914167
0.0791978
0.0529449
0.0608662
0.0917964
0.0973475
0.0862056
0.0946742
0.0677523
0.0609415
0.0528079
0.0972705
0.091523
0.0946649
0.0861385
0.0440437
0.0625026
0.0398577
0.0967113
0.0723397
0.0913312
0.0697031
0.0144771
0.0509297
0.0185674
0.0774856
0.0476724
0.0736503
0.0476053
0.0553083
0.0255152
0.0696053
0.0489324
0.0780185
0.0629417
0.0946402
0.0668845
0.0568909
0.0901192
0.0742269
0.097036
0.09401
0.121737
0.063653
0.0781865
0.0909281
0.0916124
0.101283
0.115464
0.12935
0.0559199
0.0909346
0.0780485
0.101259
0.091547
0.129319
0.115401
0.0439748
0.0899344
0.0566808
0.0969391
0.0740222
0.12159
0.0937447
0.0213041
0.0693196
0.0253506
0.0778047
0.0486425
0.0943478
0.0625503
0.0782161
0.0396209
0.105673
0.0715298
0.104632
0.0982572
0.143596
0.103927
0.0921146
0.15138
0.104264
0.134818
0.141801
0.191819
0.104636
0.140219
0.163128
0.127722
0.142876
0.182153
0.202082
0.0915073
0.163043
0.140035
0.142832
0.127676
0.202038
0.182092
0.0661008
0.151004
0.0919283
0.134624
0.104025
0.191582
0.141496
0.0307071
0.105249
0.0394434
0.104306
0.0711178
0.143189
0.0975808
0.120279
0.102489
0.169329
0.119363
0.162994
0.194924
0.24822
0.175312
0.139591
0.244959
0.15907
0.219193
0.21935
0.328079
0.191777
0.243563
0.283329
0.209128
0.230874
0.31949
0.349613
0.165564
0.283084
0.243281
0.230806
0.209085
0.349507
0.319665
0.106901
0.244318
0.139475
0.218917
0.158784
0.327624
0.219085
0.0551018
0.168617
0.101494
0.162549
0.118606
0.247195
0.192779
0.194148
0.0626495
0.234491
0.116394
0.283285
0.100766
0.416267
0.286342
0.23405
0.366271
0.246498
0.376733
0.385684
0.548703
0.338713
0.389027
0.440918
0.371436
0.403686
0.557567
0.55734
0.291296
0.440713
0.388738
0.403611
0.37175
0.558347
0.562421
0.163959
0.365499
0.233506
0.376213
0.246294
0.551189
0.38486
0.0530243
0.233706
0.062146
0.282221
0.115451
0.414939
0.0988323
0.254521
0.0948595
0.313061
0.120781
0.390719
0.192018
0.598044
0.395517
0.340727
0.488057
0.428354
0.647557
0.623903
0.959151
0.469971
0.520592
0.579187
0.672626
0.641991
0.996779
1.12029
0.419828
0.579009
0.519948
0.642218
0.678158
1.12057
0.997951
0.267631
0.486869
0.3391
0.652789
0.426795
0.957911
0.621239
0.0810163
0.311265
0.0936529
0.388552
0.117555
0.594351
0.191285
0.324067
0.0225493
0.292557
0.205066
0.632215
0.179029
0.83101
0.518718
0.340241
0.555261
0.66343
1.02326
0.91238
1.63335
0.62127
0.612638
0.709064
1.06431
1.2002
1.72581
2.06865
0.55503
0.708712
0.6103
1.19999
1.06144
2.06794
1.718
0.35545
0.552242
0.337116
1.0199
0.65979
1.62401
0.906164
0.0895293
0.288982
0.0201562
0.627302
0.204354
0.825175
0.175498
0.24544
-0.307148
-0.120207
0.135154
0.844121
-0.222539
0.478425
0.529873
-0.0759102
0.156407
0.934203
1.7391
0.620703
2.22177
0.703472
0.226482
0.354122
1.84343
2.25226
2.38229
3.62009
0.59148
0.353449
0.222418
2.25143
1.83907
3.6198
2.37424
0.293222
0.150844
-0.0819999
1.72999
0.928444
2.2117
0.606957
-0.0306435
-0.125743
-0.309588
0.839414
0.131694
0.467307
-0.227936
-0.337457
-0.950349
-1.23064
-0.446447
0.313276
-1.42862
-2.09862
-0.128016
-1.32862
-1.5486
0.443618
2.18022
-2.19768
-2.10899
0.0518863
-1.5887
-1.61847
2.347
3.64224
-2.01163
-0.420318
-0.0700192
-1.62487
-1.58134
3.64199
2.3437
-0.424649
-2.0444
-0.319674
-1.55467
-1.33331
2.17456
0.430847
-2.13906
-2.1682
-0.450233
-1.23501
-0.951014
0.302056
-0.451942
-2.07895
-1.43266
-1.55494
-1.32255
-2.12445
-1.79622
-2.59761
-2.40595
-5.10084
-2.14316
-2.40979
-3.3681
-2.76425
-2.76313
-5.67697
-12.2573
-2.40467
-3.66148
-4.19598
-2.71284
-1.34667
-12.9331
-18.9499
-2.2475
-4.19735
-3.65609
-1.35147
-2.74895
-18.9496
-12.9171
-1.71495
-3.36571
-2.40602
-2.80486
-2.73596
-12.2403
-5.66324
-1.11169
-2.12097
-1.31774
-2.58297
-1.79833
-5.08818
-2.39636
-2.083
-0.710075
-1.2073
-2.30448
-5.06068
-1.11554
-1.88554
-3.32703
-1.33279
-1.7159
-5.62588
-12.3335
-1.97196
-1.54768
-4.16765
-1.81628
-1.99048
-13.0191
-19.2906
-1.44339
-0.0896596
-3.61364
-1.99246
-1.80829
-19.2895
-12.9954
-0.0844132
-1.39192
-2.3599
-1.7061
-1.32141
-12.3098
-5.60626
-1.49538
-1.93405
-1.25869
-1.19645
-0.700832
-5.04281
-2.29092
-1.85068
-1.0949
-0.797884
0.195876
0.24258
-0.609356
-1.29861
0.600288
1.41409
-0.99233
0.320085
0.571735
-1.30983
-0.773338
1.63912
3.71828
-1.04563
0.660393
0.833008
-0.631537
1.05506
4.06279
5.63683
-1.00863
0.834045
0.667192
1.06165
-0.582082
5.63844
4.08214
-0.839463
0.579837
0.330087
-0.722986
-1.27278
3.73923
1.65777
-0.457042
0.252933
0.203808
-1.26435
-0.588726
1.42986
0.616845
0.468614
0.611516
0.825255
0.830799
1.56498
1.07182
1.81921
0.85719
0.924596
1.20845
1.78412
3.74544
1.93262
2.92205
1.1324
1.29213
1.43232
4.05399
5.43894
3.03197
3.55816
0.958972
1.43303
1.29565
5.44043
4.07136
3.55863
3.03937
0.572873
1.21271
0.929988
3.76415
1.80265
2.92997
1.94264
0.363772
0.830848
0.616579
1.58028
0.845239
1.82915
1.08031
0.85897
0.696113
0.837627
1.03257
1.57588
0.998496
1.27759
1.21621
0.921549
1.09483
1.80152
2.44874
1.43101
1.76738
1.41029
1.14493
1.22434
2.6512
2.97852
1.87217
2.0338
1.29361
1.22438
1.14658
2.9794
2.65658
2.03423
1.87484
0.96044
1.09687
0.924285
2.45519
1.80952
1.77066
1.43531
0.629852
0.840413
0.698818
1.58387
1.03957
1.28192
1.00259
0.818915
0.560314
0.682339
0.941792
1.17533
0.738464
0.917883
1.05618
0.736875
0.853478
1.30954
1.58785
1.00195
1.17959
1.17589
0.88338
0.932221
1.67253
1.80427
1.22776
1.29923
1.10409
0.932342
0.884146
1.80461
1.67466
1.29941
1.22888
0.89885
0.854446
0.738223
1.59047
1.31304
1.18098
1.00385
0.682187
0.683723
0.561707
1.17885
0.94521
0.919823
0.740381
0.664315
0.510455
0.559322
0.714523
0.858979
0.588461
0.650594
0.820754
0.65709
0.710789
0.928448
1.08553
0.76526
0.830183
0.89326
0.759513
0.781078
1.12519
1.18626
0.888223
0.914048
0.848132
0.781216
0.759902
1.18641
1.12612
0.914216
0.888702
0.712188
0.711404
0.657869
1.08669
0.93003
0.830919
0.766191
0.557648
0.560136
0.511321
0.860606
0.716176
0.651566
0.58949
0.072839
0.0362181
0.0709733
0.0366577
0.0773041
0.0431127
0.0783969
0.088001
0.0641987
0.0920717
0.0678179
0.0957529
0.0752289
0.103377
0.0895117
0.0846932
0.0948959
0.0904007
0.0935084
0.0971377
0.107513
0.0821746
0.0948058
0.0847192
0.0936458
0.090752
0.107498
0.097057
0.0617345
0.0919334
0.0642488
0.0959154
0.0677012
0.10326
0.0750306
0.034111
0.0707927
0.0357839
0.0772238
0.0363
0.0781813
0.0427264
0.0755303
0.0571151
0.0979393
0.0448572
0.0825421
0.0721685
0.104958
0.0987255
0.0934669
0.131913
0.0804828
0.109813
0.109139
0.142598
0.102484
0.12415
0.139948
0.103788
0.115164
0.138345
0.152818
0.0911068
0.139708
0.124163
0.115167
0.103685
0.152818
0.138172
0.0685946
0.131508
0.0932001
0.109689
0.080253
0.142397
0.108807
0.0377401
0.0976646
0.0566341
0.0823263
0.0444191
0.104683
0.0716839
0.109112
0.0975016
0.153812
0.0827927
0.115864
0.128299
0.164894
0.148799
0.156564
0.22137
0.123011
0.159372
0.184162
0.235884
0.159158
0.215939
0.242239
0.156271
0.172274
0.238862
0.260159
0.141339
0.241763
0.215898
0.172307
0.156063
0.260237
0.238536
0.105695
0.220574
0.155932
0.159175
0.122665
0.235563
0.183664
0.0660993
0.15343
0.0967443
0.115564
0.0822554
0.164506
0.12767
0.174385
0.20029
0.268503
0.155436
0.186946
0.27694
0.292434
0.255149
0.254441
0.396195
0.210432
0.272905
0.313693
0.431741
0.281571
0.406831
0.456848
0.279452
0.304254
0.458127
0.500666
0.251611
0.455982
0.406219
0.304395
0.279033
0.500915
0.457305
0.176887
0.394633
0.253279
0.272547
0.209926
0.430928
0.312871
0.119677
0.267297
0.198252
0.18647
0.154699
0.291568
0.275995
0.305788
0.105401
0.380012
0.161942
0.331316
0.145498
0.381763
0.462569
0.416539
0.825968
0.360237
0.510462
0.613911
0.942068
0.539776
0.879299
1.00133
0.547359
0.600162
0.982453
1.17717
0.480549
0.998159
0.871274
0.600535
0.546284
1.17457
0.978448
0.287485
0.820156
0.412972
0.509457
0.359259
0.938083
0.607974
0.116166
0.376378
0.104791
0.330224
0.161372
0.378978
0.145172
0.426804
0.23117
0.659505
0.182495
0.519604
0.31157
0.849782
0.859049
0.683756
1.05496
0.642941
1.02107
0.900729
1.3812
0.941252
1.09676
1.23993
1.04122
1.13287
1.4393
1.69128
0.885316
1.23949
1.09642
1.13366
1.04016
1.6925
1.43989
0.487892
1.05304
0.680604
1.01955
0.640202
1.38094
0.897117
0.132729
0.655636
0.229089
0.516793
0.181193
0.845762
0.308968
0.698207
0.25663
0.951393
0.349779
0.910163
0.403022
1.43813
1.12596
1.0382
1.841
0.966783
1.48846
1.58355
2.82772
1.32351
1.94776
2.33836
1.55014
1.84839
2.95768
3.50405
1.17003
2.33732
1.94428
1.85195
1.55096
3.52077
2.94576
0.723711
1.83509
1.03096
1.48828
0.962841
2.8177
1.57521
0.251693
0.94445
0.252501
0.905818
0.346696
1.42964
0.39821
0.975022
-0.149652
0.642051
0.384856
1.52025
0.0354004
1.60444
1.97741
0.838307
2.52946
1.6888
3.15283
2.04082
6.75657
2.56314
2.68604
4.08609
3.31062
3.89748
7.19099
13.0037
2.09568
4.08587
2.67278
3.89577
3.29967
13.0122
7.17274
1.06467
2.51569
0.824145
3.14348
1.67959
6.73616
2.02031
0.214146
0.628193
-0.156337
1.51105
0.379328
1.58452
0.026578
0.468226
-1.5677
-2.21594
-0.251804
1.4624
-1.80309
-2.26958
2.5014
-2.24871
-1.95256
1.9284
7.06977
-2.10062
8.24616
4.14404
-1.8082
0.397125
7.5545
14.7225
10.6247
100.99
2.65605
0.392233
-1.84422
14.7317
7.53531
101.074
10.5131
0.645362
-1.98432
-2.23961
7.04811
1.90467
8.12172
-2.15518
-0.404498
-2.21507
-1.5742
1.43944
-0.261863
-2.31696
-1.81419
-2.80639
-2.83944
-5.81584
-2.48634
-3.34893
-3.80503
-9.81811
-2.69912
-6.48176
-13.7212
-3.35433
6.88655
-11.5517
-49.7828
-0.507684
-14.4047
-21.8727
9.37527
116.805
-56.4487
-341.643
-2.6342
-21.8697
-14.3696
116.915
9.23293
-344.845
-56.0316
-2.90124
-13.6957
-6.46674
6.73241
-3.4122
-49.4626
-11.5141
-2.03489
-5.8016
-2.82822
-3.3974
-2.49497
-9.78786
-3.78677
-5.77566
-1.24419
-1.96897
-3.64976
-9.75606
-1.44849
-1.72386
-13.7674
-2.04979
-1.2636
-11.4744
-49.6019
-1.53275
13.6727
-22.2577
-1.1772
0.796405
-56.3294
16.8964
162.149
-14.4273
0.804097
-1.1173
-55.778
162.168
17.1103
-6.41333
-1.20317
-2.00409
-49.1696
-11.4131
13.8734
-1.43713
-2.70734
-1.9268
-1.21815
-9.70936
-3.62503
-1.63886
-1.40967
-1.28701
0.777772
1.69846
-0.561546
-0.550391
1.18139
3.26597
-0.397271
1.94988
4.60674
-0.167571
15.1939
3.86218
10.8108
2.04464
5.04728
7.14389
18.2374
133.804
12.2299
19.9712
-0.239309
7.14545
5.07068
133.82
18.4314
19.9748
12.2725
-1.23157
4.63154
1.96431
15.3817
-0.0796061
10.855
3.90298
-0.599037
1.71201
0.798254
-0.47311
-0.524323
3.30508
1.2075
1.84231
1.2351
1.93862
1.4344
3.3242
1.55149
2.70335
4.52694
2.0535
3.15027
3.86058
9.76237
2.89371
4.80069
6.71593
3.26524
3.86615
10.9123
16.721
5.01986
6.11988
4.93532
3.86662
3.27312
16.7239
10.9475
6.12055
5.03104
2.10488
3.15866
2.06409
9.79971
3.89562
4.81261
2.90801
1.03928
1.94915
1.245
3.35761
1.45563
2.71749
1.56363
1.84553
1.09059
1.43756
1.44388
2.3583
1.26517
1.70452
2.94421
1.60746
2.01421
2.74921
4.00218
1.92349
2.46742
3.63808
2.13546
2.32541
4.40415
5.06866
2.62373
2.86751
3.20818
2.32588
2.13846
5.06993
4.41221
2.86806
2.62732
2.12754
2.01788
1.61226
4.01187
2.76088
2.4718
1.92923
1.18282
1.44239
1.0951
2.36976
1.45349
1.71028
1.27046
1.30987
0.79195
1.00044
1.1766
1.52475
0.878689
1.12242
1.78587
1.08975
1.28636
1.70834
2.13257
1.22579
1.45439
2.03011
1.33829
1.41747
2.25049
2.43744
1.51553
1.61009
1.88358
1.41766
1.33951
2.43787
2.25328
1.61031
1.51693
1.45952
1.28788
1.09182
2.13599
1.71289
1.45612
1.22813
1.03222
1.00256
0.794013
1.52934
1.18097
1.12482
0.881038
0.927097
0.658366
0.732107
0.839785
1.02965
0.694767
0.774559
1.17108
0.861697
0.936812
1.11261
1.30987
0.912278
0.993326
1.28097
1.00348
1.03367
1.35953
1.4384
1.06494
1.09761
1.21471
1.03386
1.00403
1.43858
1.36068
1.09781
1.06553
1.00171
0.937651
0.862757
1.31128
1.11454
0.994224
0.913413
0.762481
0.733209
0.659528
1.03163
0.841789
0.775741
0.696013
0.0772827
0.0432046
0.0783944
0.0342424
0.0733654
0.0359927
0.0710686
0.0959334
0.0750328
0.103265
0.0615942
0.087941
0.0642965
0.0920696
0.0933372
0.0968988
0.107366
0.0817713
0.0893645
0.0846677
0.0948664
0.0906883
0.107199
0.0969554
0.0893176
0.0814326
0.0947553
0.084641
0.0677005
0.103093
0.0750182
0.08777
0.0616646
0.0918208
0.0640349
0.0363002
0.0780585
0.0427031
0.0726592
0.0346231
0.0706228
0.0356997
0.0824643
0.0722081
0.104903
0.037931
0.0755338
0.0567545
0.0977559
0.109712
0.109015
0.142327
0.0686293
0.0986803
0.0932897
0.131867
0.115025
0.137842
0.152435
0.0910832
0.102456
0.124258
0.140038
0.1036
0.152156
0.137853
0.102381
0.091062
0.139911
0.124328
0.0802674
0.141951
0.108752
0.0984285
0.068392
0.131525
0.0931915
0.0443916
0.104729
0.0716931
0.0751572
0.0376232
0.0973749
0.0565274
0.115819
0.128422
0.164871
0.0662216
0.108854
0.0968408
0.153416
0.159124
0.18422
0.235409
0.105724
0.148678
0.156122
0.221208
0.171885
0.238054
0.259409
0.141433
0.159204
0.216281
0.24239
0.155746
0.259009
0.23785
0.159103
0.141502
0.242318
0.216105
0.122658
0.234697
0.183516
0.14838
0.10572
0.220775
0.155806
0.0822285
0.16459
0.127727
0.108526
0.0660002
0.153479
0.0965436
0.187084
0.27758
0.292701
0.11986
0.173897
0.199128
0.267578
0.272463
0.314102
0.430951
0.177043
0.254911
0.253806
0.395726
0.303493
0.456948
0.499519
0.251972
0.281565
0.407163
0.45665
0.278326
0.499021
0.456132
0.281507
0.251722
0.456711
0.406419
0.209834
0.429823
0.31279
0.254388
0.176608
0.394756
0.252924
0.154704
0.291479
0.275788
0.173558
0.119414
0.266184
0.198186
0.331769
0.146783
0.383363
0.116792
0.305174
0.10496
0.378428
0.509648
0.612123
0.937828
0.288407
0.46193
0.415618
0.826062
0.598991
0.978474
1.17228
0.481673
0.539274
0.878886
0.998644
0.545061
1.17222
0.976158
0.53934
0.480649
0.994446
0.874432
0.359309
0.938346
0.613418
0.460778
0.287211
0.819477
0.411653
0.161143
0.379019
0.144774
0.303398
0.116347
0.374076
0.103869
0.519964
0.311567
0.849122
0.134974
0.425783
0.231192
0.658424
1.01945
0.899798
1.379
0.489099
0.862321
0.682621
1.05486
1.11458
1.43811
1.68079
0.89203
0.943574
1.09802
1.24045
1.03737
1.67039
1.43447
0.939439
0.882783
1.23982
1.09418
0.639465
1.37596
0.896399
0.848803
0.486927
1.0526
0.679873
0.181096
0.845181
0.308806
0.422258
0.134539
0.654786
0.228501
0.909442
0.402808
1.43732
0.254146
0.696523
0.255549
0.94815
1.48591
1.58238
2.81892
0.725786
1.12513
1.03424
1.83694
1.83593
2.94887
3.42847
1.17141
1.32607
1.94404
2.3362
1.54494
3.42528
2.93979
1.32666
1.16747
2.33845
1.93938
0.962122
2.81107
1.57474
1.12298
0.72296
1.83247
1.02957
0.346573
1.42932
0.398119
0.693242
0.251005
0.942622
0.252025
1.51962
0.035216
1.60409
0.217473
0.971217
-0.151007
0.637836
3.14563
2.04012
6.75461
1.06822
1.9745
0.833879
2.52501
3.82087
7.18816
12.9806
2.09654
2.55975
2.67975
4.11865
3.295
12.98
7.17477
2.56325
2.09037
4.07387
2.67142
1.67912
6.73749
2.01941
1.96825
1.06331
2.513
0.821328
0.379235
1.58389
0.0264057
0.965442
0.213544
0.625894
-0.156963
1.46172
-1.80306
-2.2712
-0.398371
0.464428
-1.56765
-2.19238
7.0685
-2.10065
8.26018
0.657184
2.49357
-2.21549
-2.00328
14.707
10.6401
101.121
2.65547
4.18818
-1.85861
0.413577
7.53753
101.191
10.5365
4.12916
2.64963
0.400665
-1.76192
1.904
8.14426
-2.15614
2.4844
0.643447
-1.91077
-2.27275
-0.26201
-2.31707
-1.81405
0.451007
-0.405051
-2.23507
-1.57287
-3.35076
-3.80097
-9.81466
-2.02985
-2.78126
-2.83398
-5.80134
6.9028
-11.5447
-49.727
-2.8794
-2.69702
-6.46284
-13.6747
117.405
-56.3768
-336.113
-2.59083
-0.487455
-14.3491
-21.8005
9.25916
-338.905
-55.9834
-0.508578
-2.57531
-21.8005
-14.313
-3.41307
-49.4266
-11.5105
-2.68917
-2.94536
-13.6501
-6.4493
-2.49487
-9.78259
-3.78708
-2.82427
-2.03253
-5.78855
-2.82258
-9.75403
-1.44626
-1.7193
-2.71758
-5.75938
-1.23563
-1.94769
-49.5473
-1.52974
13.6497
-6.4154
-13.7213
-2.02658
-1.2147
16.8735
162.167
-14.4133
-22.1726
-1.11912
0.909783
-55.7233
162.185
17.1196
-22.1715
-14.3734
0.91058
-1.05832
-11.4104
13.8815
-1.43474
-13.6843
-6.39406
-1.1225
-1.98113
-3.62501
-1.63833
-1.40824
-5.73969
-2.7001
-1.90612
-1.20997
-0.548501
1.18297
3.2688
-0.616452
-1.26698
0.785082
1.69969
15.1677
3.8646
10.8102
-1.25346
-0.338426
1.95242
4.62858
133.815
12.2331
19.9818
-0.233639
2.15292
5.07106
7.06591
18.4391
19.9855
12.2759
2.1517
-0.181259
7.06691
5.09434
-0.0766506
10.8547
3.90305
-0.261603
-1.20917
4.65383
1.98913
-0.522994
3.30485
1.20841
-1.22634
-0.591101
1.73541
0.803122
3.32554
1.55219
2.70418
1.02796
1.84745
1.23849
1.94354
9.75947
2.8946
4.79835
2.09506
4.54779
2.05867
3.15909
16.7248
5.01711
6.11971
4.93769
6.65467
3.27537
3.87116
10.9456
6.12034
5.0279
6.65588
4.95659
3.87162
3.28331
3.89659
4.81001
2.90887
4.56858
2.1243
3.16757
2.06929
1.45707
2.71828
1.56403
1.87631
1.04355
1.95411
1.24807
2.35927
1.26544
1.70493
1.17767
1.84996
1.09243
1.4399
4.00575
1.92395
2.468
2.12383
2.94966
1.61013
2.01742
5.06455
2.62422
2.86788
3.20261
3.63709
2.13807
2.32918
4.41435
2.86843
2.6278
3.63811
3.20897
2.32965
2.14109
2.76227
2.47236
1.92969
2.95723
2.13307
2.0211
1.61497
1.45388
1.7107
1.27071
1.85918
1.18531
1.44479
1.09693
1.52509
0.878799
1.1226
1.02984
1.31179
0.792992
1.00154
2.13301
1.22599
1.45462
1.45787
1.78858
1.09103
1.28786