/*--------------------------------*- C++ -*----------------------------------*\
| =========                 |                                                 |
| \\      /  F ield         | OpenFOAM: The Open Source CFD Toolbox           |
|  \\    /   O peration     | Version:  2206                                  |
|   \\  /    A nd           | Website:  www.openfoam.com                      |
|    \\/     M anipulation  |                                                 |
\*---------------------------------------------------------------------------*/
FoamFile
{
    version     2.0;
    format      ascii;
    arch        "LSB;label=32;scalar=64";
    class       volScalarField;
    location    "200";
    object      ReThetat;
}
// * * * * * * * * * * * * * * * * * * * * * * * * * * * * * * * * * * * * * //

dimensions      [0 0 0 0 0 0 0];

internalField   nonuniform List<scalar> 
198968
(
507.297
536.251
536.242
536.212
536.209
536.243
536.253
506.858
482.934
478.384
476.604
476.767
477.05
476.549
477.335
482.457
424.791
470.968
468.533
468.691
468.919
468.459
469.221
472.845
424.43
456.882
454.065
454.205
454.448
453.943
454.874
458.872
416.791
443.198
439.181
439.046
439.216
438.789
440.435
445.696
404.521
431.448
427.234
426.26
425.576
426.661
428.332
433.887
395.659
419.635
414.284
412.803
411.676
413.59
415.349
422.514
386.848
406.657
404.31
402.473
401.749
403.4
404.305
409.072
377.39
396.413
396.057
393.663
393.402
394.539
395.454
398.243
368.885
384.085
384.814
383.671
383.617
383.753
383.92
385.633
360.977
371.663
371.913
371.024
371.003
371.048
371.121
373.102
352.383
358.923
358.702
357.852
357.846
357.851
357.947
360.151
341.099
345.174
345.094
344.311
344.312
344.309
344.297
346.55
324.981
329.821
329.765
329.911
329.917
329.905
329.867
332.278
308.853
313.699
313.658
313.656
313.654
313.661
313.638
316.131
292.504
297.334
297.302
297.303
297.304
297.307
297.309
299.862
277.361
280.672
280.657
280.655
280.656
280.66
280.666
283.408
260.298
263.574
263.57
263.569
263.569
263.571
263.575
266.426
242.884
245.855
245.867
245.871
245.871
245.87
245.864
248.587
222.121
227.463
227.477
227.489
227.491
227.484
227.47
222.121
461.081
552.097
550.899
550.428
550.373
550.55
551.436
555.068
450.349
537.248
536.115
535.614
535.564
535.761
536.589
540.365
440.251
523.814
522.876
522.435
522.452
522.558
523.237
526.89
430.189
509.181
508.602
508.093
508.175
508.21
508.899
512.144
419.254
492.913
492.841
492.612
492.641
492.706
492.815
495.876
409.239
474.501
474.601
474.575
474.638
474.597
474.512
476.744
401.674
454.333
454.476
454.479
454.553
454.47
454.415
455.509
393.594
432.514
432.555
432.607
432.674
432.566
432.533
433.831
385.227
408.75
408.727
408.776
408.807
408.746
408.709
408.955
375.336
393.042
393.008
392.966
392.965
392.992
393.001
393.268
365.3
377.263
377.355
377.334
377.341
377.344
377.281
377.446
355.416
361.511
361.644
361.694
361.698
361.676
361.551
361.492
344.325
345.818
345.915
345.991
346.013
345.97
345.858
345.822
329.671
329.891
329.974
330.015
330.035
329.986
329.941
329.912
313.567
313.653
313.531
313.495
313.494
313.483
313.523
313.662
297.191
297.184
297.069
297.038
297.039
297.053
297.094
297.231
280.43
280.458
280.391
280.373
280.372
280.371
280.432
280.562
263.275
263.262
263.214
263.246
263.27
263.226
263.231
263.375
245.486
245.5
245.511
245.533
245.546
245.524
245.504
245.528
227.171
227.225
227.278
227.301
227.31
227.294
227.248
227.208
402.42
424.588
419.531
418.975
419.014
419.201
420.156
469.95
395.156
411.466
406.654
406.013
406.006
406.183
407.302
459.027
390.388
402.932
399.556
398.938
398.871
399.146
400.1
449.684
385.83
401.596
401.726
401.876
402.315
401.746
401.755
441.433
382.214
401.683
402.085
402.373
402.857
402.199
402.077
434.72
378.708
402.08
402.55
402.88
403.483
402.697
402.489
429.691
373.551
403.264
403.595
403.816
404.652
403.713
403.495
424.965
368.191
405.773
405.936
406.408
407.504
406.143
405.82
414.038
322.171
404.844
405.535
406.083
406.81
405.826
405.29
408.942
321.951
394.632
396.052
396.615
396.9
396.397
395.707
394.984
326.33
379.325
380.418
380.905
381.102
380.778
380.175
379.28
331.232
363.526
364.093
364.503
364.325
364.499
364.038
363.533
330.9
347.903
348.099
348.35
348.508
348.315
348.04
347.865
329.765
332.081
332.392
332.673
332.844
332.56
332.316
332.043
315.785
315.801
315.634
315.463
315.496
315.469
315.696
315.845
299.464
299.245
299.034
298.846
298.789
298.883
299.084
299.361
282.787
282.577
282.297
281.97
281.933
282.017
282.369
282.692
263.208
265.398
265.196
264.998
264.954
265.04
265.249
263.095
245.424
247.77
247.729
247.642
247.611
247.666
247.745
245.415
227.254
227.296
227.286
227.271
227.265
227.279
227.297
227.284
403.753
419.247
383.711
383.092
383.187
383.472
384.809
470.384
394.41
405.767
369.33
368.218
368.315
368.628
370.742
459.367
389.073
397.925
357.437
355.562
355.671
355.994
359.293
450.078
384.44
402.198
350.175
345.386
345.481
345.603
350.471
441.656
380.912
402.05
342.222
333.572
333.745
333.81
342.688
434.704
376.744
402.184
334.318
321.621
321.852
321.87
334.929
429.617
373.36
403.542
326.291
309.393
309.679
309.642
327.061
425.137
365.552
406.588
318.292
296.918
297.227
297.192
319.239
414.173
318.675
406.122
312.784
285.225
285.837
285.29
312.468
409.284
325.456
395.972
313.162
276.641
277.326
276.813
312.901
395.002
331.657
380.318
313.585
268.212
269.143
268.314
313.287
379.221
331.491
364.01
323.467
264.042
265.192
264.071
323.266
363.572
331.021
348.143
341.701
268.239
269.04
268.382
341.54
348.016
329.919
332.42
334.263
303.451
306.873
303.398
334.138
332.322
315.819
315.809
316.848
316.807
316.275
316.799
316.869
315.865
299.435
299.08
299.621
298.708
298.166
298.794
299.719
299.275
282.791
282.408
281.924
281.474
281.19
281.591
282.03
282.605
263.391
265.438
265.115
264.739
264.64
264.821
265.201
263.233
245.503
247.784
247.586
247.53
247.518
247.538
247.609
245.456
227.276
227.276
227.255
227.247
227.245
227.25
227.264
227.284
402.235
420.047
383.984
383.546
383.508
383.692
385.065
470.618
394.567
406.233
369.58
368.638
368.592
368.817
370.956
459.546
389.012
398.175
357.617
355.87
355.829
356.076
359.457
450.433
384.442
402.232
350.371
345.534
345.531
345.641
350.643
442.014
380.883
402.292
342.386
333.761
333.781
333.857
342.84
435.154
376.526
402.476
334.419
321.869
321.881
321.965
335.09
430.157
373.269
403.782
326.328
309.69
309.722
309.758
327.254
425.598
365.176
407.047
318.279
297.276
297.286
297.29
319.505
414.646
317.984
406.742
313.106
285.641
285.438
285.606
312.846
409.601
324.977
396.355
313.541
276.806
264.969
276.84
313.15
395.037
331.888
380.327
314.165
267.784
233.757
268.104
313.536
379.211
330.872
364.058
324.512
261.589
144.728
262.306
323.279
363.526
330.764
348.257
342.954
260.958
65.6992
262.784
341.787
348.089
329.957
332.631
335.334
306.068
306.101
334.969
332.465
315.816
315.635
316.368
312.828
284.589
313.423
316.437
315.746
299.421
299.062
299.14
297.526
296.094
297.814
299.265
299.249
282.797
282.381
281.836
281.139
280.858
281.319
281.959
282.581
263.445
265.467
265.049
264.656
264.56
264.731
265.174
263.257
245.51
247.803
247.547
247.503
247.491
247.51
247.573
245.459
227.272
227.271
227.251
227.243
227.241
227.246
227.259
227.28
428.465
418.882
384.279
383.896
384.081
384.056
385.238
469.934
403.857
405.503
370.187
369.59
369.79
369.713
371.285
458.917
391.029
397.833
358.657
357.722
357.933
357.832
359.902
449.831
384.427
402.252
349.919
347.168
347.275
347.147
349.754
441.73
380.623
402.27
342.044
336.796
336.857
336.821
342.113
434.924
376.99
402.297
334.357
326.297
326.299
326.361
334.399
430.009
372.974
403.696
326.676
315.497
315.422
315.577
326.642
425.926
366.838
406.702
318.844
304.383
304.258
304.485
318.914
414.511
319.404
405.871
312.867
284.855
285.249
284.929
312.407
409.231
325.102
395.877
313.268
277.153
277.383
277.264
312.741
395.021
329.87
380.134
313.76
268.487
268.868
268.53
313.191
379.229
331.79
363.992
323.843
264.151
265.128
264.318
323.196
363.568
331.114
348.098
341.847
268.118
269.35
268.421
341.484
347.967
329.886
332.334
334.044
303.158
306.792
303.603
333.93
332.241
315.816
315.835
316.872
316.878
316.458
316.873
316.863
315.876
299.43
299.126
299.708
298.884
298.554
298.951
299.767
299.285
282.755
282.447
281.97
281.623
281.383
281.702
282.071
282.606
263.273
265.424
265.127
264.81
264.695
264.89
265.202
263.145
245.469
247.793
247.602
247.548
247.53
247.556
247.637
245.437
227.278
227.288
227.268
227.255
227.253
227.259
227.28
227.294
451.806
473.351
473.013
473.198
473.379
472.964
473.369
485.373
441.534
462.457
462.072
462.26
462.493
461.994
462.728
477.373
433.343
454.992
454.393
454.708
455.046
454.349
455.31
473.203
425.659
450.293
448.95
449.216
449.709
448.729
450.26
470.638
414.91
447.133
445.865
446.097
446.548
445.506
446.954
468.777
405.431
444.009
442.694
442.711
443.206
442.068
443.514
463.804
396.409
437.448
436.312
436.307
436.721
435.757
437.031
453.5
388.08
425.484
424.821
424.893
425.177
424.498
425.275
436.906
379.343
410.068
409.837
410.075
410.345
409.893
409.913
410.806
370.97
394.974
395.179
395.454
395.547
395.39
395.198
395.203
363.755
379.293
379.454
379.597
379.64
379.65
379.476
379.315
353.298
363.62
363.728
363.873
363.918
363.909
363.707
363.523
342.582
347.893
348.042
348.214
348.325
348.182
347.999
347.832
330.112
332.095
332.311
332.469
332.589
332.397
332.258
332.019
313.699
315.829
315.604
315.515
315.552
315.496
315.676
315.813
297.283
299.31
299.126
299
298.988
299
299.181
299.367
280.535
282.632
282.453
282.258
282.243
282.251
282.539
280.417
263.248
263.143
263.007
262.952
262.926
262.97
263.079
263.202
245.413
245.413
245.402
245.377
245.375
245.39
245.412
245.421
227.195
227.266
227.29
227.287
227.286
227.291
227.283
227.243
506.633
536.327
536.273
536.225
536.225
536.255
536.259
507.31
483.274
558.714
559.915
559.602
559.35
559.933
559.169
482.947
447.497
540.33
541.507
541.195
540.938
541.514
540.798
555.256
442.723
524.753
526.075
525.724
525.437
526.065
525.319
530.265
436.104
508.151
509.741
509.408
509.148
509.73
508.955
513.81
423.624
488.27
490.298
490.625
491.169
490.324
489.131
493.634
406.876
465.182
467.665
468.142
469.037
467.585
466.261
468.867
395.192
439.378
441.42
442.981
444.1
441.784
440.631
441.57
382.776
410.947
411.642
414.581
415.262
412.88
411.561
413.312
372.502
393.6
392.778
393.122
393.156
393.094
392.895
395.955
362.332
377.874
377.147
377.16
377.167
377.153
377.257
380.148
351.65
361.485
361.475
361.477
361.475
361.476
361.409
364.013
340.366
345.832
345.758
345.79
345.795
345.777
345.71
348.357
327.819
329.897
329.834
329.853
329.856
329.847
329.8
332.269
311.447
313.706
313.611
313.57
313.552
313.59
313.63
316.27
295.042
297.289
297.2
297.186
297.185
297.192
297.219
299.975
278.202
280.583
280.548
280.542
280.542
280.547
280.555
283.364
260.892
263.44
263.436
263.44
263.44
263.441
263.435
266.347
243.008
245.69
245.697
245.7
245.703
245.698
245.695
248.474
222.121
227.301
227.328
227.335
227.335
227.334
227.312
222.121
401.72
401.482
402.012
402.26
349.879
402.27
344.17
401.657
401.88
402.049
349.78
347.09
343.86
339.378
402.147
402.144
402.611
347.168
347.196
339.475
339.422
401.931
402.613
402.352
347.187
347.191
339.413
339.457
401.695
401.976
402.01
347.105
349.86
339.375
343.944
401.441
401.879
401.515
349.955
402.222
344.242
402.231
402.01
401.851
402.405
402.244
342.236
402.268
336.525
402.072
402.313
402.526
341.873
336.751
336.098
328.947
402.655
402.632
403.178
336.853
336.771
329.064
328.891
402.38
403.176
402.85
336.762
336.821
328.882
328.993
402.015
402.451
402.449
336.741
341.959
328.92
336.196
401.515
402.269
401.895
342.308
402.205
336.605
402.228
402.418
402.671
403.15
402.268
334.539
403.087
328.686
402.562
403.1
403.293
334.169
326.29
328.487
318.256
403.275
403.399
404.033
326.414
326.215
318.388
318.113
402.893
404.032
403.64
326.206
326.333
318.106
318.294
402.479
403.22
403.243
326.26
334.273
318.225
328.618
401.917
403.009
402.737
334.626
402.228
328.8
403.054
403.415
404.876
405.125
403.623
326.691
405.768
320.896
403.561
405.108
405.356
326.455
315.503
320.608
307.22
404.397
405.525
406.536
315.65
315.34
307.388
307.033
403.843
406.563
405.834
315.333
315.557
307.026
307.294
403.516
405.282
405.274
315.472
326.594
307.188
320.77
403.107
404.956
404.962
326.813
403.595
321.036
405.747
405.723
405.702
406.199
406.532
318.889
407.029
313.278
405.935
406.331
406.697
318.59
304.405
312.797
296.036
407.179
406.944
407.801
304.56
304.178
296.138
295.74
406.449
407.864
407.137
304.171
304.465
295.733
296.041
405.826
406.671
406.433
304.372
318.757
296
312.979
405.597
406.079
405.73
319.031
406.539
313.41
406.98
405.255
397.932
399.055
405.87
312.358
399.34
312.761
405.702
399.305
399.626
312.695
284.772
313.136
278.302
406.615
399.875
400.189
284.874
285.257
278.303
278.48
406.132
400.225
399.943
285.249
284.92
278.475
278.335
405.479
399.64
399.315
284.773
312.847
278.293
313.299
404.755
399.012
397.928
312.496
405.818
312.908
399.264
395.734
383.281
384.241
395.999
312.717
384.337
312.924
396.368
384.451
384.803
313.089
277.174
313.398
269.624
396.861
384.987
385.194
277.176
277.369
269.591
269.934
396.655
385.213
385.02
277.36
277.212
269.925
269.64
396.042
384.82
384.441
277.168
313.236
269.632
313.515
394.614
384.204
383.276
312.852
395.921
313.089
384.238
380.216
367.46
368.012
380.234
313.163
367.961
321.195
380.768
368.224
368.612
313.654
268.527
321.769
264.304
381.091
368.611
368.35
268.505
268.868
264.217
265.186
380.948
368.368
368.626
268.858
268.549
265.173
264.127
380.413
368.616
368.23
268.539
313.765
264.195
321.918
379.322
368.061
367.487
313.324
380.144
321.394
367.945
363.989
351.817
351.949
363.978
323.135
352.036
339.932
364.501
352.003
352.217
323.663
264.31
340.347
267.513
364.311
352.276
352.472
264.223
265.181
267.147
268.423
364.516
352.459
352.347
265.168
264.136
268.389
267.065
364.107
352.238
352.008
264.203
323.821
267.4
340.341
363.575
351.961
351.828
323.352
363.986
340.042
352.045
348.038
336.076
336.297
348.095
341.431
336.343
335.966
348.297
336.375
336.617
341.785
268.377
336.11
299.972
348.538
336.707
336.861
268.077
269.411
299.703
303.28
348.399
336.868
336.695
269.381
267.973
303.219
299.632
348.1
336.614
336.375
268.276
341.837
299.928
336.111
347.906
336.297
336.076
341.551
348.098
335.967
336.343
332.316
319.878
319.916
332.332
333.932
319.953
319.024
332.58
319.885
319.779
334.045
303.347
319.05
318.084
332.823
319.788
319.86
303.079
306.759
318.056
317.682
332.613
319.869
319.789
306.708
303.006
317.684
318.05
332.392
319.778
319.884
303.307
334.043
318.076
319.044
332.08
319.914
319.878
333.93
332.332
319.019
319.95
315.697
303.416
303.21
315.834
316.871
303.293
301.83
315.47
303.16
303.03
316.875
316.91
301.774
301.038
315.487
303.001
302.945
316.884
316.471
300.96
300.463
315.462
302.944
303
316.472
316.878
300.463
300.956
315.633
303.029
303.159
316.903
316.87
301.035
301.78
315.8
303.209
303.413
316.867
315.831
301.843
303.292
299.087
286.774
286.571
299.122
299.77
286.64
285.168
298.884
286.504
286.255
299.704
298.958
285.108
284.758
298.79
286.199
286.134
298.885
298.436
284.716
284.408
298.846
286.133
286.199
298.436
298.882
284.408
284.715
299.032
286.255
286.503
298.956
299.707
284.757
285.107
299.242
286.57
286.774
299.78
299.122
285.167
286.64
282.37
269.732
269.557
282.444
282.073
269.725
269.478
282.017
269.497
269.328
281.971
281.689
269.398
269.157
281.934
269.29
269.245
281.589
281.365
269.046
268.87
281.97
269.239
269.29
281.365
281.588
268.87
269.045
282.296
269.328
269.497
281.688
281.97
269.156
269.398
282.577
269.557
269.732
282.071
282.444
269.477
269.724
265.249
252.195
252.148
265.422
265.202
252.277
252.094
265.041
252.134
252.067
265.127
264.883
252.031
251.935
264.958
252.036
251.999
264.791
264.686
251.921
251.898
264.998
251.998
252.036
264.686
264.791
251.898
251.921
265.195
252.067
252.134
264.882
265.127
251.935
252.031
265.398
252.148
252.195
265.202
265.421
252.094
252.277
247.745
236.323
236.31
247.791
247.637
236.301
236.266
247.666
236.292
236.264
247.602
247.556
236.242
236.23
247.612
236.247
236.241
247.549
247.533
236.217
236.211
247.642
236.241
236.247
247.533
247.549
236.211
236.217
247.729
236.264
236.292
247.556
247.602
236.23
236.242
247.77
236.31
236.323
247.637
247.791
236.266
236.301
350.439
401.893
344.656
402.189
350.64
402.228
344.807
345.553
344.148
336.72
350.36
345.633
344.391
336.827
345.477
336.521
336.709
345.507
345.446
336.711
336.672
345.357
336.673
336.533
345.505
345.534
336.73
336.734
350.146
336.755
344.194
345.637
350.364
336.827
344.396
402.133
344.573
402.019
350.632
402.215
344.798
402.261
342.67
401.955
336.891
402.205
342.817
402.347
337.037
333.718
336.233
324.769
342.356
333.845
336.418
324.958
333.733
324.586
324.846
333.731
333.693
324.844
324.802
333.534
324.807
324.597
333.752
333.753
324.861
324.866
342.17
324.833
336.276
333.844
342.361
324.956
336.428
401.98
336.811
402.086
342.809
402.239
337.036
402.382
334.904
402.782
329.025
402.386
335.054
403.2
329.193
321.749
328.245
312.602
334.382
321.955
328.341
312.848
321.841
312.449
312.764
321.841
321.795
312.754
312.732
321.582
312.724
312.462
321.855
321.862
312.793
312.774
334.264
312.695
328.299
321.953
334.395
312.846
328.366
402.111
328.963
402.911
335.057
402.422
329.215
403.236
327.015
405.437
321.175
403.664
327.193
405.933
321.41
309.492
320.226
300.18
326.276
309.747
320.265
300.439
309.666
300.027
300.367
309.661
309.636
300.391
300.352
309.356
300.329
300.04
309.697
309.681
300.414
300.411
326.251
300.293
320.301
309.745
326.305
300.437
320.306
403.443
321.13
405.571
327.222
403.704
321.455
405.979
319.178
407.12
313.505
406.899
319.437
407.79
313.814
297.025
312.414
287.611
318.21
297.276
312.279
287.834
297.212
287.456
287.816
297.245
297.199
287.863
287.69
296.878
287.811
287.44
297.26
297.264
287.753
287.882
318.27
287.764
312.439
297.274
318.255
287.832
312.335
406.445
313.531
407.206
319.486
406.942
313.876
407.812
312.367
399.3
312.818
406.677
312.846
399.929
313.212
285.142
313.113
277.746
313.037
285.606
313.466
277.955
285.833
277.696
278.386
285.649
285.388
277.947
268.809
285.237
278.353
277.739
285.398
285.642
268.784
277.942
312.829
277.864
313.255
285.597
313.102
277.952
313.566
406.058
312.859
399.318
312.897
406.688
313.296
399.917
312.758
384.434
312.864
396.369
313.143
384.44
313.297
276.642
313.238
269.172
313.415
276.829
313.729
269.195
277.313
269.219
270.16
276.807
265.112
268.955
239.054
276.624
270.117
269.233
265.088
276.801
239.107
268.945
313.204
269.333
313.439
276.826
313.518
269.191
313.868
395.971
312.94
384.433
313.231
396.354
313.415
384.422
313.074
368.01
320.925
380.351
313.526
368.112
321.322
268.085
321.373
264.039
313.987
268.082
322.17
262.478
269.129
263.98
265.182
267.783
234.066
261.817
151.606
268.18
265.141
263.996
234.105
267.771
151.341
261.817
313.677
263.997
321.756
268.076
314.136
262.466
322.447
380.322
321.116
368.013
313.652
380.334
321.531
368.101
322.855
352.066
339.672
364.072
323.241
352.125
340.118
264.04
339.984
267.395
324.157
262.289
341.024
261.916
265.181
267.159
268.112
261.575
145.16
260.197
70.9558
264.055
268.024
267.186
144.889
261.574
70.9388
260.183
323.671
267.358
340.261
262.277
324.451
261.897
341.354
364.015
339.851
352.07
323.467
364.064
340.342
352.126
341.245
336.435
336.16
348.258
341.739
336.643
336.985
268.339
336.29
299.925
342.643
262.747
337.363
302.215
269.038
299.834
303.406
260.922
66.8028
302.217
36.8042
268.183
303.186
299.929
66.8589
260.907
37.0785
302.212
341.823
299.794
336.29
262.733
342.939
302.165
337.368
348.146
336.162
336.438
341.936
348.261
336.987
336.65
334.14
319.964
319.041
332.617
334.97
319.901
318.709
303.349
319.042
318.026
335.335
305.994
318.651
314.773
306.881
318.012
317.506
305.992
314.048
277.456
303.326
317.51
318.004
305.936
277.452
314.008
334.26
318.017
319.036
305.916
335.331
314.736
318.633
332.426
319.036
319.96
334.965
332.631
318.687
319.893
316.874
303.24
301.767
315.636
316.449
303.183
301.349
316.807
301.704
300.832
316.367
313.463
301.189
299.667
316.272
300.73
300.13
312.829
284.596
299.336
297.47
316.799
300.13
300.727
284.592
312.792
297.47
299.328
316.842
300.828
301.721
313.428
316.353
299.659
301.178
315.806
301.79
303.238
316.436
315.629
301.339
303.181
299.701
286.594
285.141
299.057
299.27
286.561
285.03
298.797
285.086
284.708
299.14
297.832
284.964
284.311
298.166
284.661
284.285
297.537
296.103
284.186
283.809
298.705
284.285
284.66
296.103
297.531
283.809
284.184
299.634
284.707
285.085
297.825
299.134
284.309
284.961
299.083
285.139
286.597
299.264
299.059
285.028
286.561
282.031
269.73
269.469
282.381
281.961
269.744
269.443
281.592
269.385
269.076
281.836
281.319
269.32
268.943
281.19
268.975
268.811
281.143
280.871
268.859
268.704
281.473
268.811
268.975
280.871
281.142
268.704
268.859
281.923
269.076
269.384
281.318
281.834
268.943
269.32
282.408
269.468
269.729
281.959
282.38
269.442
269.743
265.201
252.287
252.067
265.467
265.174
252.316
252.021
264.821
252.006
251.905
265.049
264.731
251.959
251.868
264.64
251.894
251.879
264.656
264.56
251.859
251.843
264.739
251.879
251.894
264.56
264.656
251.843
251.859
265.115
251.905
252.006
264.731
265.048
251.868
251.959
265.438
252.066
252.287
265.174
265.466
252.021
252.316
247.609
236.269
236.237
247.803
247.574
236.262
236.223
247.538
236.217
236.206
247.547
247.51
236.207
236.197
247.518
236.198
236.194
247.503
247.491
236.189
236.186
247.53
236.194
236.198
247.491
247.503
236.186
236.189
247.585
236.206
236.217
247.51
247.547
236.197
236.207
247.784
236.237
236.269
247.573
247.803
236.223
236.262
350.635
402.118
344.801
402.149
350.475
402.033
344.658
345.636
344.323
336.826
350.148
345.666
344.196
336.887
345.523
336.694
336.742
345.471
345.451
336.642
336.687
345.53
336.711
336.731
345.618
345.619
336.845
336.781
350.362
336.791
344.394
345.603
350.186
336.763
344.239
402.184
344.729
402.228
350.367
402.171
344.581
402.027
342.811
402.234
337.037
401.992
342.671
402.099
336.895
333.843
336.355
324.955
342.172
333.901
336.278
324.985
333.762
324.822
324.867
333.644
333.71
324.705
324.826
333.75
324.837
324.863
333.869
333.785
324.984
324.855
342.359
324.918
336.426
333.761
342.216
324.809
336.325
402.204
336.967
402.345
342.595
401.987
336.813
402.093
335.058
403.081
329.214
402.127
334.911
402.945
329.047
321.952
328.29
312.845
334.266
321.972
328.302
312.837
321.859
312.731
312.793
321.687
321.82
312.557
312.737
321.86
312.767
312.772
321.978
321.84
312.9
312.722
334.392
312.807
328.36
321.788
334.311
312.637
328.33
402.382
329.145
403.187
334.826
402.119
328.965
402.936
327.22
405.794
321.453
403.487
327.042
405.653
321.214
309.744
320.23
300.436
326.254
309.728
320.306
300.42
309.696
300.37
300.411
309.447
309.636
300.124
300.32
309.679
300.387
300.409
309.803
309.617
300.502
300.31
326.298
300.401
320.285
309.526
326.279
300.215
320.322
403.644
321.376
405.91
326.968
403.478
321.128
405.633
319.484
407.704
313.877
406.538
319.222
407.305
313.57
297.273
312.322
287.831
318.275
297.266
312.449
287.856
297.258
287.873
287.754
296.961
297.159
287.525
287.753
297.263
287.761
287.881
297.347
297.153
287.968
287.729
318.227
287.828
312.278
297.061
318.289
287.647
312.457
406.881
313.825
407.786
319.133
406.513
313.487
407.244
312.897
399.901
313.299
406.11
312.48
399.329
312.955
285.594
313.488
277.948
312.834
285.267
313.262
277.915
285.429
277.896
268.691
285.174
285.689
277.688
278.344
285.64
268.728
277.94
285.841
285.431
278.419
277.835
313.027
277.913
313.447
285.224
312.827
277.685
313.212
406.676
313.117
399.929
312.394
406.069
312.827
399.341
313.234
384.42
313.419
395.976
312.896
384.43
313.041
276.823
313.774
269.203
313.212
276.812
313.449
269.356
264.976
268.909
238.911
276.576
277.269
269.132
270.054
276.8
238.953
268.948
277.334
276.715
270.113
269.193
313.396
269.164
313.71
276.574
313.161
269.174
313.373
396.369
313.186
384.439
312.767
395.988
312.883
384.443
313.657
368.099
321.538
380.32
313.267
368.012
321.273
268.091
322.302
262.485
313.687
268.275
321.763
263.829
233.889
261.785
151.464
268.055
269.021
263.817
265.105
267.774
151.337
261.821
269.082
268.135
265.123
263.99
313.968
262.446
322.155
268.091
313.603
264.001
321.585
380.35
321.156
368.113
313.096
380.331
320.952
368.017
323.47
352.122
340.336
364.014
323.218
352.068
339.963
262.297
341.225
261.939
323.678
263.844
340.263
267.424
145.046
260.157
70.0683
263.84
265.101
267.316
268.084
261.579
69.9718
260.189
265.124
263.999
268.032
267.15
324.144
261.87
341.06
264.002
323.478
267.281
340.154
364.073
340.012
352.129
322.885
364.019
339.702
352.071
341.926
336.65
336.985
348.145
341.502
336.439
336.16
262.777
337.365
302.271
341.823
268.235
336.286
299.702
65.7835
302.085
37.4859
268.163
268.975
299.912
303.371
260.913
37.7997
302.198
268.955
268.116
303.32
299.983
342.687
302.132
337.366
268.189
341.713
299.877
336.287
348.262
336.99
336.651
341.273
348.147
336.161
336.439
334.968
319.899
318.7
332.428
334.137
319.964
319.039
306.063
318.649
314.763
334.258
303.117
319.037
318.026
314.046
277.452
303.313
306.839
318.003
317.499
305.922
277.447
314.003
306.785
303.443
317.497
317.984
335.331
314.731
318.636
303.304
334.258
317.992
319.03
332.63
318.695
319.895
334.138
332.426
319.032
319.96
316.448
303.185
301.345
315.809
316.872
303.241
301.792
313.461
301.185
299.658
316.843
316.801
301.72
300.831
284.592
299.328
297.46
316.797
316.265
300.729
300.26
312.787
297.459
299.32
316.263
316.78
300.26
300.72
316.353
299.65
301.183
316.77
316.836
300.82
301.695
315.63
301.343
303.179
316.866
315.805
301.762
303.237
299.269
286.563
285.03
299.086
299.721
286.599
285.139
297.821
284.964
284.302
299.632
298.791
285.08
284.703
296.094
284.179
283.799
298.703
298.3
284.657
284.298
297.52
283.799
284.177
298.3
298.699
284.298
284.656
299.136
284.3
284.962
298.787
299.613
284.702
285.078
299.054
285.028
286.559
299.696
299.078
285.137
286.594
281.961
269.744
269.443
282.409
282.03
269.73
269.468
281.32
269.32
268.943
281.92
281.599
269.385
269.08
280.859
268.859
268.704
281.494
281.201
268.985
268.815
281.138
268.704
268.859
281.201
281.494
268.815
268.985
281.834
268.943
269.32
281.598
281.919
269.079
269.384
282.379
269.442
269.743
282.029
282.407
269.468
269.73
265.174
252.316
252.021
265.439
265.201
252.29
252.066
264.731
251.959
251.868
265.115
264.821
252.006
251.905
264.56
251.859
251.843
264.741
264.641
251.894
251.878
264.656
251.843
251.859
264.641
264.741
251.878
251.894
265.048
251.868
251.959
264.821
265.115
251.905
252.006
265.466
252.021
252.316
265.201
265.439
252.066
252.29
247.574
236.262
236.223
247.783
247.609
236.269
236.237
247.51
236.207
236.197
247.586
247.538
236.217
236.206
247.491
236.189
236.186
247.53
247.518
236.198
236.194
247.503
236.186
236.189
247.518
247.53
236.194
236.198
247.547
236.197
236.207
247.538
247.585
236.206
236.217
247.803
236.223
236.262
247.609
247.783
236.237
236.269
350.033
402.099
344.317
401.538
401.786
401.622
402.09
347.126
343.931
339.404
401.706
401.769
402.024
402.168
347.135
339.368
339.359
401.947
402.234
402.385
402.695
347.247
339.442
339.548
402.221
401.856
402.68
402.287
349.906
339.38
343.996
401.658
401.702
402.048
402.016
402.219
343.951
402.228
401.707
401.544
401.996
401.59
342.381
402.092
336.677
401.61
402.08
401.985
402.483
336.772
336.182
328.953
402.017
402.192
402.445
402.659
336.706
328.893
328.82
402.415
402.735
402.89
403.234
336.926
328.909
329.136
402.72
402.316
403.214
402.785
342.012
328.95
336.241
402.07
402.019
402.523
402.451
402.202
336.291
402.226
401.992
401.589
402.38
401.964
334.698
402.924
328.872
401.981
402.492
402.796
403.214
326.295
328.598
318.268
402.469
402.7
403.211
403.443
326.141
318.176
318.033
402.934
403.318
403.668
404.012
326.486
318.13
318.461
403.296
402.826
403.976
403.554
334.291
318.262
328.463
402.56
402.481
403.286
403.246
402.227
328.495
403.073
402.393
401.986
403.121
402.837
326.886
405.643
321.122
403.168
403.479
405.039
405.21
315.519
320.752
307.245
403.48
403.712
405.225
405.527
315.257
307.151
306.944
403.862
404.348
405.809
406.384
315.723
307.049
307.463
404.309
403.732
406.338
405.655
326.429
307.233
320.586
403.55
403.519
405.323
405.279
403.622
320.756
405.781
403.386
403.212
405.09
405.067
319.14
406.901
313.512
405.698
405.814
405.846
406.325
304.43
313.029
296.067
405.84
406.11
406.415
406.861
304.088
295.931
295.631
406.415
407.054
407.125
407.644
304.635
295.802
296.221
407.013
406.245
407.622
406.942
318.588
296.103
312.821
405.896
405.83
406.664
406.438
406.583
313.297
407.111
405.691
405.704
406.173
405.821
312.534
399.217
312.966
404.843
405.374
397.914
399.19
284.82
313.233
278.354
405.474
405.857
399.337
399.758
285.21
278.226
278.538
406.139
406.491
399.995
400.152
285.04
278.454
278.432
406.476
405.978
400.152
399.875
312.759
278.34
313.145
405.678
405.482
399.621
399.322
405.932
312.685
399.364
405.234
404.82
399.039
397.954
312.908
384.237
313.081
394.569
395.909
383.211
384.13
277.227
313.391
269.679
396.082
396.504
384.442
384.926
277.422
269.521
270.005
396.719
396.838
385.093
385.186
277.287
269.878
269.574
396.839
396.6
385.189
384.977
313.097
269.571
313.406
396.365
396.049
384.802
384.45
396.014
312.831
384.342
395.718
394.631
384.223
383.285
313.315
367.956
321.385
379.271
380.091
367.513
368.008
268.584
321.727
264.245
380.361
380.838
368.137
368.301
268.943
264.089
264.978
380.981
381.085
368.322
368.336
268.49
265.077
264.217
381.087
380.902
368.344
368.601
313.661
264.254
321.78
380.766
380.422
368.61
368.242
380.239
321.053
367.967
380.199
379.331
368.071
367.479
323.341
352.045
340.031
363.615
364.007
351.833
352.035
264.255
340.201
267.569
364.086
364.275
352.061
352.211
265.007
267.212
268.348
364.29
364.299
352.268
352.473
264.225
268.272
267.171
364.304
364.497
352.473
352.272
323.674
267.462
340.34
364.5
364.117
352.217
352.014
363.985
339.838
352.044
364.041
363.549
351.971
351.825
341.541
336.345
335.965
347.908
348.051
336.079
336.297
268.366
336.111
299.991
348.107
348.298
336.374
336.614
269.33
299.575
303.271
348.347
348.544
336.7
336.849