/*--------------------------------*- C++ -*----------------------------------*\
| =========                 |                                                 |
| \\      /  F ield         | OpenFOAM: The Open Source CFD Toolbox           |
|  \\    /   O peration     | Version:  2206                                  |
|   \\  /    A nd           | Website:  www.openfoam.com                      |
|    \\/     M anipulation  |                                                 |
\*---------------------------------------------------------------------------*/
FoamFile
{
    version     2.0;
    format      ascii;
    arch        "LSB;label=32;scalar=64";
    class       volScalarField;
    location    "400";
    object      nut;
}
// * * * * * * * * * * * * * * * * * * * * * * * * * * * * * * * * * * * * * //

dimensions      [0 2 -1 0 0 0 0];

internalField   nonuniform List<scalar> 
198968
(
0.0402231
0.0411915
0.0411903
0.0411907
0.0411907
0.0411903
0.0411915
0.0402295
0.0408137
0.0406371
0.0406676
0.0406557
0.0406466
0.0406652
0.0406435
0.04082
0.0411067
0.04122
0.0412649
0.041253
0.0412456
0.0412624
0.0412457
0.0411227
0.0417054
0.0417349
0.0417781
0.0417667
0.0417594
0.0417764
0.0417581
0.0416336
0.0422748
0.0422054
0.0422629
0.042257
0.0422519
0.042266
0.0422365
0.0420971
0.0425523
0.0426251
0.0426743
0.0426841
0.042696
0.0426798
0.0426541
0.0425216
0.0428194
0.0430135
0.0430779
0.0430961
0.043116
0.0430843
0.0430574
0.0429037
0.0430667
0.0434062
0.0434409
0.0434795
0.0434997
0.0434554
0.0434335
0.0432902
0.0433348
0.0438028
0.0437856
0.0438332
0.0438404
0.0438102
0.0437867
0.0437032
0.0438771
0.0442328
0.0441843
0.0441926
0.0441942
0.0441916
0.0441895
0.044136
0.044514
0.0446386
0.0445989
0.0445995
0.0446003
0.0445998
0.0446002
0.0445418
0.0451304
0.0450314
0.0450003
0.045
0.0450002
0.0450007
0.0450002
0.0449405
0.0454936
0.0454145
0.0453897
0.0453898
0.0453899
0.0453899
0.04539
0.0453327
0.0458304
0.0457324
0.0457346
0.0457347
0.0457348
0.0457347
0.0457349
0.0456734
0.0461966
0.0460885
0.0460914
0.046092
0.0460922
0.0460918
0.046092
0.0460237
0.046603
0.0464826
0.046485
0.0464851
0.0464852
0.0464851
0.046485
0.0464094
0.0470348
0.0469231
0.0469246
0.0469247
0.0469247
0.0469246
0.0469246
0.0468366
0.0475435
0.0474223
0.0474231
0.0474231
0.0474231
0.0474231
0.0474231
0.0473229
0.0481175
0.047998
0.0479978
0.0479977
0.0479976
0.0479977
0.047998
0.047894
0.0488783
0.0486717
0.0486712
0.0486707
0.0486706
0.0486709
0.0486715
0.0488783
0.0385078
0.0428437
0.0428387
0.0428381
0.0428377
0.0428383
0.0428392
0.0427259
0.0392125
0.0430274
0.0430237
0.0430235
0.0430233
0.0430237
0.0430234
0.0429171
0.0397878
0.0431884
0.0431843
0.0431841
0.0431838
0.0431842
0.0431842
0.0430731
0.0403483
0.0433555
0.0433509
0.0433503
0.04335
0.0433505
0.0433511
0.0432368
0.0409297
0.0435309
0.0435261
0.0435259
0.0435256
0.0435259
0.0435264
0.0434133
0.0414943
0.0437159
0.0437129
0.0437123
0.0437117
0.0437126
0.0437131
0.0436347
0.0420845
0.0439121
0.0439115
0.0439111
0.0439104
0.0439113
0.0439116
0.0438755
0.0426776
0.044122
0.044122
0.0441215
0.044121
0.0441218
0.0441218
0.0440868
0.0432557
0.0443442
0.044345
0.044345
0.0443448
0.0443449
0.0443449
0.0443401
0.0438491
0.0445816
0.0445824
0.044583
0.044583
0.0445825
0.0445822
0.0445755
0.0444109
0.0448381
0.0448368
0.0448372
0.0448371
0.044837
0.0448378
0.0448309
0.044941
0.045114
0.0451123
0.0451117
0.0451117
0.045112
0.0451136
0.0451129
0.0454282
0.0454105
0.0454101
0.0454097
0.0454095
0.0454097
0.0454105
0.0454084
0.0457383
0.0457346
0.0457348
0.0457353
0.0457353
0.0457354
0.0457347
0.0457324
0.0460938
0.0460922
0.0460961
0.0460976
0.0460978
0.0460977
0.046096
0.0460909
0.046488
0.0464881
0.0464913
0.0464921
0.046492
0.0464918
0.0464908
0.0464864
0.046931
0.04693
0.0469319
0.0469323
0.0469322
0.0469325
0.0469311
0.046927
0.0474322
0.0474325
0.047434
0.0474329
0.0474321
0.0474336
0.0474337
0.0474291
0.0480108
0.0480104
0.04801
0.0480093
0.0480088
0.0480096
0.0480104
0.0480096
0.0486829
0.048681
0.0486789
0.048678
0.0486776
0.0486783
0.0486801
0.0486817
0.0389034
0.0428578
0.0429728
0.0429863
0.0429932
0.0429786
0.0429466
0.0427869
0.0395697
0.0430406
0.0431293
0.0431427
0.0431455
0.0431363
0.0431083
0.0429784
0.0401133
0.0431983
0.0432563
0.0432682
0.0432693
0.0432627
0.0432425
0.0431621
0.0406842
0.0433394
0.0433217
0.0433206
0.0433217
0.0433203
0.0433223
0.0433369
0.0412297
0.04351
0.0435047
0.0435055
0.0435067
0.0435048
0.0435047
0.0435131
0.0417587
0.0436931
0.043692
0.0436938
0.0436946
0.0436932
0.0436918
0.0436959
0.042311
0.0438879
0.043888
0.0438898
0.0438904
0.0438894
0.0438878
0.0438915
0.0427601
0.0440952
0.0440955
0.0440972
0.0440978
0.0440969
0.0440953
0.0441033
0.0430281
0.044316
0.044316
0.0443173
0.0443181
0.044317
0.0443159
0.0443198
0.0435051
0.0445519
0.0445508
0.0445517
0.0445524
0.0445513
0.044551
0.0445524
0.04382
0.0448049
0.0448027
0.0448022
0.044803
0.0448019
0.0448033
0.0448042
0.0442326
0.0450791
0.0450761
0.0450728
0.0450739
0.0450726
0.045077
0.0450776
0.0450166
0.0453729
0.0453723
0.0453703
0.045369
0.0453704
0.0453727
0.0453719
0.0456883
0.0456924
0.045691
0.0456911
0.0456903
0.045692
0.0456912
0.0456914
0.0460432
0.0460449
0.046051
0.0460564
0.0460561
0.0460559
0.0460491
0.046043
0.04643
0.0464361
0.0464412
0.0464447
0.0464457
0.0464441
0.0464401
0.0464329
0.0468637
0.0468704
0.0468773
0.0468853
0.046886
0.0468842
0.0468755
0.0468666
0.0474334
0.0473649
0.0473707
0.0473763
0.0473775
0.0473751
0.0473692
0.0474384
0.0480124
0.0479298
0.0479311
0.0479339
0.0479349
0.0479331
0.0479306
0.0480135
0.0486796
0.048678
0.0486784
0.048679
0.0486792
0.0486787
0.048678
0.0486788
0.0389306
0.0430124
0.0442985
0.0444881
0.0448322
0.0443857
0.0443667
0.0428145
0.0396029
0.0431746
0.0445004
0.0447296
0.0451458
0.0446135
0.0446038
0.0430071
0.0401662
0.0433114
0.0446305
0.0449386
0.0454008
0.0448086
0.0447275
0.0431827
0.0406956
0.0433363
0.0447243
0.0449931
0.0450783
0.0449737
0.0447428
0.0433451
0.0412366
0.0435057
0.0443486
0.0451928
0.0452934
0.0451748
0.0443078
0.043524
0.0417988
0.0436895
0.0440106
0.0454371
0.0455625
0.0454234
0.0439224
0.0437068
0.0422749
0.0438862
0.0439941
0.0457502
0.045898
0.0457404
0.0438964
0.0438985
0.0428707
0.0440952
0.0441755
0.0461008
0.04626
0.046086
0.0440856
0.0441023
0.0431668
0.0443178
0.0442647
0.0463963
0.0464997
0.0463937
0.0442894
0.044324
0.0433392
0.0445553
0.0445328
0.0467592
0.0468626
0.0467467
0.0445426
0.0445568
0.0436036
0.0448078
0.0447928
0.0463503
0.0462609
0.0463074
0.0447938
0.0448068
0.0442074
0.0450785
0.0450631
0.0451029
0.0451954
0.0450951
0.0450627
0.0450777
0.0449268
0.0453734
0.0453547
0.0453746
0.0454553
0.0453703
0.0453517
0.0453723
0.045713
0.0456925
0.0456738
0.0456821
0.0457285
0.0456796
0.0456725
0.0456909
0.0460436
0.0460465
0.0460275
0.0460306
0.0460405
0.0460303
0.0460264
0.0460443
0.0464302
0.0464383
0.0464211
0.0464328
0.0464389
0.0464321
0.0464194
0.0464341
0.0468627
0.0468733
0.0468835
0.0468916
0.0468976
0.0468893
0.0468815
0.0468679
0.0474271
0.0473628
0.0473715
0.0473815
0.047384
0.0473793
0.0473693
0.0474336
0.0480094
0.0479292
0.0479355
0.047937
0.0479372
0.0479368
0.0479349
0.048012
0.0486787
0.0486787
0.0486796
0.0486798
0.0486799
0.0486797
0.0486792
0.0486787
0.0397549
0.0430129
0.0443075
0.0459483
0.0470029
0.0444884
0.0443792
0.042824
0.0399967
0.0431708
0.044509
0.0465747
0.0484216
0.0447322
0.0446144
0.0430152
0.0401611
0.0433041
0.0446421
0.0470881
0.0498761
0.0449391
0.0447363
0.0431823
0.0407111
0.0433288
0.0447024
0.0466723
0.0524917
0.0453049
0.0447439
0.043344
0.0412483
0.0435056
0.044351
0.0469734
0.0574863
0.045546
0.0443022
0.0435201
0.0418198
0.0436907
0.0440638
0.0473362
0.0620836
0.0458445
0.0439195
0.0437035
0.0422856
0.0438876
0.0440844
0.0478416
0.0664297
0.0462196
0.0438994
0.0438951
0.0428937
0.0440961
0.0442688
0.048412
0.0704408
0.046632
0.0440897
0.0441017
0.0432119
0.044318
0.0442871
0.0481499
0.0905825
0.0473281
0.0442904
0.0443233
0.0433666
0.0445561
0.0445305
0.0488369
0.1051
0.047806
0.0445468
0.0445576
0.0435907
0.0448093
0.0447992
0.0484464
0.107856
0.0473869
0.0448034
0.0448075
0.0442128
0.0450797
0.0450799
0.0463554
0.259876
0.0459676
0.0450727
0.0450785
0.0449232
0.0453739
0.0453686
0.0466777
0.664254
0.0462934
0.0453626
0.0453725
0.0457132
0.0456926
0.0456823
0.0463899
0.0461801
0.0456779
0.0456908
0.0460439
0.0460508
0.0460368
0.0460947
0.0467177
0.0460831
0.0460351
0.0460472
0.0464301
0.0464373
0.0464262
0.046437
0.0464473
0.0464346
0.0464249
0.0464337
0.046862
0.0468731
0.0468833
0.0468956
0.0469004
0.0468923
0.0468813
0.0468678
0.0474253
0.0473615
0.0473726
0.0473826
0.0473849
0.0473807
0.0473693
0.0474326
0.0480091
0.0479284
0.0479365
0.0479375
0.0479377
0.0479374
0.0479358
0.0480118
0.0486788
0.0486789
0.0486797
0.04868
0.04868
0.0486799
0.0486794
0.0486789
0.0393977
0.043001
0.0443348
0.0443153
0.0443199
0.0443074
0.0442752
0.0427762
0.0397023
0.0431689
0.0445497
0.0445374
0.0445363
0.0445232
0.0445111
0.0429672
0.0401545
0.0433075
0.0446678
0.0446862
0.04468
0.0446646
0.0446377
0.0431801
0.0407052
0.0433408
0.0447462
0.0447606
0.0447663
0.0447468
0.0447668
0.0433423
0.0412426
0.0435122
0.0443472
0.0447935
0.0448168
0.0447691
0.0443281
0.0435183
0.0417682
0.0436906
0.0439851
0.0448638
0.0449195
0.0448329
0.0439326
0.0436981
0.0422815
0.043886
0.043958
0.0450837
0.0451488
0.0450577
0.0438996
0.0438924
0.0427781
0.0440954
0.0441373
0.0453761
0.0454571
0.0453466
0.044088
0.0441043
0.0431137
0.0443179
0.0442771
0.0462062
0.0462788
0.0462058
0.0442893
0.0443244
0.0433365
0.0445544
0.0445327
0.0465519
0.0466114
0.0465373
0.0445405
0.0445554
0.0436588
0.0448072
0.0447913
0.0462259
0.0461114
0.046192
0.0447921
0.0448063
0.0441941
0.0450781
0.0450619
0.0450903
0.0451495
0.0450827
0.0450616
0.0450777
0.0449215
0.045373
0.0453511
0.0453657
0.0454154
0.0453621
0.0453538
0.0453724
0.0457129
0.0456922
0.045674
0.0456767
0.0457062
0.045675
0.0456732
0.0456911
0.0460435
0.0460456
0.0460267
0.0460291
0.0460374
0.0460289
0.0460262
0.0460437
0.0464305
0.0464377
0.0464201
0.0464319
0.0464349
0.0464314
0.0464193
0.0464342
0.0468639
0.0468727
0.0468834
0.0468897
0.046895
0.0468883
0.0468814
0.0468682
0.047431
0.0473634
0.0473716
0.0473801
0.0473831
0.047378
0.0473697
0.0474366
0.0480107
0.0479289
0.0479352
0.0479366
0.047937
0.0479364
0.0479341
0.0480127
0.0486786
0.0486783
0.0486791
0.0486796
0.0486796
0.0486794
0.0486787
0.0486783
0.038528
0.0428399
0.042829
0.0428289
0.0428291
0.0428289
0.0428297
0.0426843
0.039249
0.0430265
0.043016
0.0430161
0.0430162
0.0430164
0.0430184
0.0428704
0.0397875
0.0431876
0.0431818
0.0431832
0.0431833
0.0431833
0.043184
0.0430293
0.0403372
0.0433536
0.0433529
0.0433537
0.0433539
0.0433535
0.0433537
0.0432143
0.0409472
0.04353
0.0435295
0.0435304
0.0435305
0.0435303
0.0435299
0.0433873
0.0415348
0.0437162
0.0437161
0.0437165
0.0437164
0.0437165
0.0437159
0.0435748
0.0421491
0.0439137
0.0439136
0.0439139
0.0439137
0.0439139
0.0439132
0.0437706
0.0427082
0.0441231
0.0441222
0.0441224
0.0441222
0.0441225
0.0441219
0.0439747
0.0432839
0.0443161
0.0443152
0.0443155
0.0443155
0.0443156
0.0443149
0.0443265
0.0438467
0.0445524
0.0445501
0.0445504
0.0445504
0.0445502
0.0445495
0.044548
0.044332
0.0448044
0.0448026
0.0448023
0.0448022
0.0448013
0.0448021
0.0448032
0.0448653
0.0450765
0.0450751
0.0450731
0.0450724
0.0450726
0.0450754
0.0450777
0.0453567
0.0453716
0.0453709
0.0453698
0.0453684
0.0453699
0.0453711
0.0453718
0.0457323
0.0456903
0.0456893
0.0456899
0.045689
0.0456905
0.0456894
0.0456907
0.0460907
0.0460432
0.04605
0.0460533
0.0460529
0.0460535
0.0460479
0.0460428
0.046485
0.0464341
0.0464384
0.0464411
0.0464411
0.0464412
0.0464372
0.0464323
0.0469275
0.0468681
0.0468728
0.0468776
0.0468778
0.046878
0.0468706
0.0469321
0.0474326
0.047436
0.04744
0.0474415
0.0474423
0.0474411
0.0474381
0.0474349
0.048013
0.0480133
0.0480137
0.0480146
0.0480146
0.0480141
0.0480135
0.0480135
0.0486819
0.0486794
0.0486785
0.0486786
0.0486786
0.0486784
0.0486788
0.0486804
0.0401986
0.0411927
0.0411881
0.0411893
0.0411894
0.0411892
0.0411906
0.040221
0.0407592
0.0429186
0.0428804
0.0428959
0.0429066
0.0428831
0.0428938
0.0408123
0.0391109
0.0428528
0.0428092
0.0428232
0.0428329
0.0428117
0.0428233
0.0430121
0.0398877
0.0429906
0.0429471
0.042961
0.0429707
0.0429495
0.0429619
0.0428428
0.0404413
0.0431477
0.0431069
0.0431199
0.0431286
0.0431091
0.0431246
0.0429898
0.0411105
0.0433862
0.0433364
0.0433316
0.0433199
0.0433373
0.0433658
0.0432523
0.0418399
0.0436718
0.0436158
0.043608
0.0435889
0.0436189
0.0436482
0.043597
0.0425473
0.0439799
0.0439374
0.0439076
0.0438849
0.043931
0.0439543
0.0439569
0.0432501
0.0443011
0.0442865
0.044233
0.0442201
0.0442645
0.0442886
0.0442915
0.0438364
0.0445627
0.0445854
0.0445754
0.0445744
0.0445761
0.0445822
0.0445254
0.0443819
0.044818
0.0448395
0.044839
0.0448389
0.0448391
0.0448357
0.0447781
0.0449083
0.0451122
0.045114
0.0451141
0.0451142
0.045114
0.0451151
0.0450624
0.0454078
0.0454068
0.045411
0.0454109
0.0454109
0.0454109
0.0454115
0.0453533
0.0457855
0.0457314
0.0457356
0.0457359
0.045736
0.0457357
0.0457358
0.0456715
0.0461493
0.046089
0.0460934
0.0460947
0.0460952
0.0460942
0.0460927
0.0460199
0.0465498
0.0464844
0.0464882
0.0464887
0.0464888
0.0464886
0.0464878
0.0464061
0.047002
0.0469262
0.0469282
0.0469284
0.0469284
0.0469283
0.0469281
0.0468373
0.0475166
0.0474269
0.0474277
0.0474276
0.0474276
0.0474276
0.0474279
0.0473248
0.0481082
0.048004
0.0480041
0.048004
0.0480039
0.0480041
0.0480042
0.0478973
0.0488783
0.0486782
0.0486771
0.0486769
0.0486769
0.0486769
0.0486777
0.0488783
0.0433221
0.0434655
0.0434587
0.0433405
0.0447611
0.0434661
0.0444458
0.0433206
0.0434587
0.0434586
0.0447584
0.044749
0.0444774
0.0447674
0.0433217
0.043459
0.0434603
0.0447539
0.0447688
0.0447779
0.0448055
0.0433203
0.0434603
0.0434588
0.0447683
0.0447602
0.0448048
0.0447861
0.0433217
0.0434584
0.0434587
0.0447565
0.0447476
0.0447772
0.0444616
0.0433386
0.0434587
0.0434654
0.0447517
0.0433404
0.0444319
0.0434664
0.0435047
0.043646
0.0436445
0.0435116
0.0443236
0.0436429
0.0439962
0.043505
0.0436446
0.0436457
0.044367
0.0447725
0.0440636
0.0448082
0.0435067
0.0436462
0.0436471
0.0447853
0.0448189
0.044828
0.0448833
0.0435053
0.0436471
0.0436462
0.0448182
0.0447938
0.0448828
0.0448357
0.0435047
0.0436456
0.0436446
0.0447828
0.0443507
0.0448183
0.0440497
0.0435099
0.0436444
0.0436459
0.0443095
0.0435119
0.0439855
0.043643
0.0436918
0.0438376
0.0438378
0.0436904
0.0439305
0.0438355
0.0438761
0.0436933
0.043838
0.0438393
0.0439999
0.0448362
0.0439428
0.0449914
0.0436946
0.0438398
0.0438404
0.0448577
0.0449196
0.0450106
0.0450798
0.0436938
0.0438404
0.0438398
0.0449191
0.0448646
0.0450798
0.0450145
0.043692
0.0438393
0.043838
0.0448458
0.0439879
0.0449982
0.0439363
0.043693
0.0438377
0.0438375
0.0439218
0.0436905
0.0438735
0.0438355
0.0438878
0.0440419
0.0440422
0.0438859
0.0439
0.0440416
0.0440341
0.0438894
0.0440425
0.0440439
0.043965
0.0450609
0.0440906
0.0452768
0.0438904
0.0440442
0.0440448
0.0450815
0.0451474
0.0453028
0.0453827
0.0438899
0.0440448
0.0440443
0.0451475
0.0450844
0.0453831
0.0453033
0.043888
0.0440438
0.0440425
0.0450667
0.0439599
0.0452791
0.0440873
0.0438878
0.0440422
0.0440419
0.0438987
0.0438859
0.0440346
0.0440416
0.0440953
0.0442595
0.0442594
0.0440953
0.0440884
0.044261
0.0442569
0.0440969
0.0442596
0.0442608
0.0441416
0.0453495
0.0442986
0.0455646
0.0440978
0.0442611
0.0442617
0.0453752
0.0454549
0.0455881
0.0456602
0.0440973
0.0442617
0.0442611
0.0454554
0.045375
0.0456607
0.0455856
0.0440955
0.0442607
0.0442596
0.0453505
0.0441385
0.0455613
0.0442957
0.0440951
0.0442594
0.0442595
0.044089
0.0440953
0.0442574
0.0442611
0.0443159
0.0444915
0.0444907
0.0443179
0.0442912
0.0444938
0.04451
0.0443171
0.0444907
0.0444913
0.0442776
0.046209
0.0444994
0.0465089
0.0443181
0.0444917
0.0444924
0.0462095
0.046277
0.0465178
0.0465854
0.0443174
0.0444924
0.0444917
0.0462767
0.0462001
0.046585
0.0465065
0.044316
0.0444913
0.0444907
0.0461997
0.0442775
0.0464969
0.0445001
0.044316
0.0444907
0.0444915
0.0442921
0.0443179
0.0445105
0.0444938
0.044551
0.0447397
0.0447384
0.0445544
0.0445406
0.0447424
0.0447601
0.0445514
0.044738
0.0447376
0.0445313
0.0465476
0.0447571
0.0463172
0.0445524
0.0447378
0.0447384
0.0465567
0.0466144
0.0463364
0.0462415
0.0445517
0.0447384
0.0447378
0.0466146
0.0465455
0.0462449
0.0463397
0.0445508
0.0447375
0.044738
0.0465363
0.0445323
0.0463268
0.0447578
0.0445518
0.0447384
0.0447397
0.044541
0.0445544
0.0447601
0.0447425
0.0448033
0.0450086
0.0450067
0.0448072
0.0447922
0.0450087
0.0450269
0.0448019
0.0450053
0.0450027
0.0447903
0.0461941
0.0450269
0.0450837
0.044803
0.045003
0.0450045
0.0462161
0.0461032
0.0450917
0.0451412
0.0448022
0.0450045
0.045003
0.0461069
0.0462231
0.0451414
0.0450945
0.0448027
0.0450027
0.0450053
0.0462076
0.0447909
0.0450864
0.0450268
0.0448049
0.0450065
0.0450082
0.0447922
0.0448073
0.0450268
0.0450086
0.0450773
0.0452972
0.045297
0.0450783
0.0450617
0.045297
0.0453163
0.0450727
0.0452964
0.0452939
0.0450619
0.0450835
0.0453166
0.0453435
0.0450739
0.0452936
0.0452914
0.0450895
0.0451488
0.0453465
0.0453985
0.0450728
0.0452918
0.0452927
0.0451488
0.0450906
0.0453984
0.0453463
0.045076
0.0452937
0.0452964
0.0450845
0.0450618
0.0453432
0.0453137
0.0450782
0.0452969
0.0452971
0.0450616
0.0450782
0.0453132
0.0452969
0.0453727
0.0456097
0.0456088
0.0453731
0.0453538
0.0456096
0.0456317
0.0453706
0.0456086
0.0456081
0.0453544
0.0453625
0.0456324
0.0456554
0.0453684
0.0456077
0.0456072
0.0453656
0.045416
0.0456572
0.0456873
0.0453696
0.045607
0.0456079
0.045416
0.0453654
0.0456872
0.045657
0.0453723
0.0456082
0.0456086
0.0453622
0.0453511
0.0456554
0.0456324
0.0453729
0.0456088
0.0456097
0.0453507
0.045373
0.0456317
0.0456096
0.0456912
0.045954
0.0459557
0.0456923
0.0456732
0.0459549
0.0459802
0.0456916
0.0459571
0.0459616
0.045674
0.045675
0.0459805
0.0460059
0.0456907
0.0459621
0.0459616
0.0456767
0.0457062
0.0460069
0.0460163
0.0456923
0.0459614
0.045962
0.0457061
0.0456766
0.0460162
0.0460069
0.045691
0.0459616
0.0459571
0.045675
0.045674
0.0460059
0.0459805
0.0456924
0.0459557
0.045954
0.0456732
0.0456923
0.0459802
0.0459549
0.0460491
0.046334
0.0463393
0.0460456
0.0460262
0.0463361
0.0463691
0.0460559
0.0463404
0.0463429
0.0460266
0.0460284
0.0463698
0.0463801
0.0460563
0.0463434
0.0463444
0.0460291
0.0460373
0.0463808
0.0463868
0.0460564
0.0463444
0.0463434
0.0460373
0.0460291
0.0463868
0.0463808
0.046051
0.0463429
0.0463404
0.0460284
0.0460266
0.0463802
0.0463695
0.0460449
0.0463393
0.0463341
0.0460262
0.0460456
0.0463687
0.046336
0.04644
0.0467569
0.0467619
0.0464379
0.0464193
0.0467591
0.0467961
0.0464441
0.0467634
0.0467693
0.0464202
0.0464313
0.0467972
0.0468029
0.0464456
0.0467705
0.0467719
0.046432
0.0464376
0.0468036
0.0468099
0.0464447
0.0467719
0.0467705
0.0464376
0.046432
0.0468099
0.0468036
0.0464412
0.0467693
0.0467634
0.0464313
0.0464201
0.0468029
0.0467972
0.0464362
0.0467619
0.0467569
0.046419
0.0464378
0.0467961
0.0467591
0.0468755
0.0472353
0.0472401
0.0468728
0.0468814
0.0472348
0.0472413
0.0468842
0.0472417
0.0472463
0.0468834
0.0468887
0.0472432
0.0472492
0.046886
0.0472473
0.0472485
0.0468907
0.0468955
0.0472521
0.0472567
0.0468853
0.0472487
0.0472473
0.0468955
0.0468907
0.0472567
0.0472521
0.0468773
0.0472463
0.0472417
0.0468887
0.0468834
0.0472492
0.0472432
0.0468704
0.0472401
0.0472353
0.0468814
0.0468728
0.0472413
0.0472348
0.0473692
0.047782
0.0477834
0.0473635
0.0473697
0.0477791
0.047785
0.0473751
0.0477838
0.0477859
0.0473716
0.0473782
0.0477869
0.0477896
0.0473774
0.0477869
0.047788
0.0473807
0.0473834
0.0477899
0.0477904
0.0473763
0.047788
0.0477869
0.0473834
0.0473807
0.0477904
0.0477899
0.0473707
0.0477859
0.0477838
0.0473782
0.0473716
0.0477896
0.0477869
0.0473649
0.0477834
0.047782
0.0473697
0.0473635
0.047785
0.0477791
0.0479306
0.0483365
0.048337
0.047929
0.0479341
0.0483372
0.0483385
0.0479331
0.0483376
0.0483385
0.0479352
0.0479364
0.0483392
0.0483396
0.0479349
0.0483391
0.0483393
0.0479365
0.047937
0.04834
0.0483402
0.0479339
0.0483393
0.0483391
0.047937
0.0479365
0.0483402
0.04834
0.0479311
0.0483385
0.0483376
0.0479364
0.0479352
0.0483396
0.0483392
0.0479298
0.048337
0.0483365
0.0479341
0.047929
0.0483385
0.0483372
0.0447488
0.04346
0.0444376
0.0433287
0.0447448
0.0434595
0.0444263
0.0449745
0.0444606
0.0451218
0.0447117
0.0453042
0.0444601
0.0454812
0.0450795
0.0451403
0.0452377
0.0466752
0.0523016
0.0469038
0.0560537
0.0449926
0.0452362
0.0451394
0.0524291
0.0466805
0.0562282
0.0469106
0.0447205
0.0451215
0.0444494
0.0453051
0.0447033
0.0454818
0.0444494
0.0433358
0.0444366
0.04346
0.0447376
0.0433287
0.0444152
0.0434595
0.0443176
0.0436414
0.0439939
0.0435054
0.0443052
0.0436425
0.0439846
0.0451752
0.0440721
0.0453541
0.0443652
0.0455455
0.0441178
0.0457625
0.0452951
0.0453701
0.0454908
0.0469765
0.0572126
0.047235
0.0605626
0.0451923
0.0454884
0.0453696
0.0574052
0.0469841
0.0608253
0.0472456
0.0443452
0.0453552
0.0440644
0.045546
0.0443547
0.045763
0.0441107
0.0435056
0.043992
0.0436414
0.0442937
0.0435054
0.0439756
0.0436425
0.0439283
0.0438359
0.0438737
0.0436906
0.0439214
0.0438374
0.0438745
0.0454215
0.0439703
0.0456522
0.0440724
0.0458435
0.0440572
0.0461188
0.0455643
0.0456654
0.0458115
0.0473375
0.0615897
0.0477063
0.0645735
0.0454363
0.0458089
0.0456648
0.0618814
0.0473491
0.0649701
0.0477212
0.0440082
0.0456555
0.0439682
0.0458441
0.0440669
0.0461201
0.044056
0.0436894
0.043873
0.0438358
0.0439139
0.0436907
0.0438717
0.0438373
0.0438974
0.0440417
0.0440311
0.0438876
0.0439
0.0440427
0.0440358
0.045736
0.0441243
0.0459952
0.0440864
0.0462175
0.0442196
0.0465261
0.0458995
0.0460123
0.0461716
0.0478415
0.0654895
0.0482704
0.068093
0.0457488
0.0461697
0.0460113
0.065922
0.0478574
0.068609
0.0482897
0.0439935
0.0459993
0.0441243
0.0462192
0.0440862
0.0465292
0.0442203
0.0438862
0.0440312
0.0440417
0.0438982
0.0438875
0.0440354
0.0440426
0.0440854
0.0442608
0.0442543
0.0440961
0.0440902
0.0442611
0.0442589
0.0460814
0.0443299
0.0463396
0.0442692
0.0466285
0.0444131
0.0469382
0.0462609
0.0463628
0.0465301
0.0484118
0.0688857
0.0488243
0.0713733
0.0460992
0.0465294
0.0463613
0.0694117
0.0484323
0.0718478
0.0488534
0.0441757
0.046344
0.0443304
0.0466322
0.0442699
0.0469434
0.0444132
0.0440952
0.0442544
0.0442608
0.0440898
0.044096
0.0442584
0.044261
0.0442892
0.0444946
0.0445119
0.044318
0.0442912
0.044495
0.0445159
0.0463894
0.0445011
0.0467127
0.0442871
0.0473187
0.0444989
0.0477464
0.046499
0.0467271
0.0468399
0.0481465
0.0855968
0.0487616
0.0986048
0.0463932
0.0468409
0.0467229
0.0856285
0.0481755
0.0974535
0.0487913
0.0442648
0.0467175
0.0445011
0.0473282
0.0442866
0.0477552
0.0444981
0.0443177
0.0445121
0.0444946
0.0442904
0.044318
0.0445154
0.044495
0.0445425
0.0447432
0.0447617
0.0445561
0.0445474
0.0447448
0.0447713
0.0467445
0.0447597
0.0464791
0.0445303
0.0477968
0.0447643
0.0475391
0.046862
0.0464905
0.0464117
0.0488302
0.0995903
0.0486064
0.105155
0.0467552
0.0464208
0.0464806
0.0980394
0.0488598
0.0996841
0.0486322
0.0445327
0.0464519
0.0447596
0.0478051
0.0445294
0.0475391
0.0447635
0.0445553
0.0447617
0.0447432
0.0445468
0.044556
0.0447709
0.0447447
0.0447938
0.0450089
0.0450279
0.0448093
0.0448039
0.04501
0.0450383
0.0463502
0.0450282
0.045099
0.044799
0.0473943
0.0450454
0.0460038
0.0462615
0.0451077
0.0451902
0.0484502
0.108903
0.0463742
0.236772
0.046349
0.0451905
0.0451076
0.10273
0.0484774
0.226408
0.0464369
0.0447927
0.0450985
0.0450281
0.0473923
0.0447982
0.0459856
0.045045
0.0448078
0.0450278
0.0450089
0.0448034
0.0448093
0.045038
0.04501
0.0450628
0.0452973
0.0453159
0.0450797
0.045073
0.0452981
0.0453245
0.0450963
0.0453168
0.0453516
0.0450798
0.0459851
0.045331
0.0462674
0.0451955
0.0453557
0.0454382
0.0463559
0.260285
0.046679
0.694278
0.0451021
0.0454382
0.0453555
0.250446
0.0464273
0.671529
0.0467227
0.045063
0.0453513
0.045315
0.0459695
0.0450794
0.0462941
0.045331
0.0450785
0.0453142
0.0452973
0.0450728
0.0450797
0.0453245
0.0452981
0.0453537
0.0456098
0.0456313
0.0453739
0.0453626
0.0456102
0.0456375
0.0453705
0.0456325
0.0456601
0.0453686
0.0462682
0.0456423
0.0461887
0.0454552
0.0456628
0.0457111
0.0466785
0.690718
0.0464087
0.517645
0.0453744
0.045711
0.0456622
0.651027
0.0467196
0.493309
0.0464093
0.0453523
0.0456599
0.0456325
0.0462941
0.0453686
0.0461895
0.0456422
0.0453734
0.0456313
0.0456097
0.0453626
0.0453739
0.0456375
0.04561
0.0456725
0.0459554
0.0459806
0.0456929
0.0456779
0.0459583
0.0459896
0.0456796
0.0459815
0.0460074
0.0456824
0.0461788
0.0459919
0.0460707
0.0457286
0.0460082
0.0460202
0.0463897
0.0460867
0.0389951
0.0456819
0.0460201
0.0460082
0.04639
0.0389949
0.0460867
0.0456737
0.0460074
0.0459815
0.0461794
0.0456823
0.0460708
0.0459919
0.0456923
0.0459806
0.0459554
0.0456779
0.0456925
0.0459898
0.0459583
0.0460264
0.0463368
0.0463695
0.0460507
0.0460351
0.0463368
0.0463738
0.0460303
0.0463703
0.0463817
0.0460368
0.0460829
0.0463756
0.0463847
0.0460406
0.0463824
0.0463887
0.0460945
0.0467176
0.0463868
0.046399
0.0460306
0.0463887
0.0463825
0.0467176
0.0460945
0.046399
0.0463868
0.0460275
0.0463817
0.0463698
0.0460829
0.0460369
0.0463847
0.0463757
0.0460465
0.0463689
0.0463367
0.0460352
0.0460508
0.0463739
0.0463368
0.0464199
0.0467598
0.0467962
0.0464374
0.0464249
0.0467595
0.0467961
0.0464321
0.0467972
0.046803
0.0464262
0.0464343
0.0467971
0.046807
0.0464389
0.0468038
0.0468115
0.0464367
0.0464471
0.0468093
0.0468149
0.0464328
0.0468115
0.0468038
0.0464471
0.0464367
0.0468149
0.0468093
0.0464207
0.046803
0.0467972
0.0464343
0.0464262
0.046807
0.0467971
0.0464381
0.0467962
0.0467597
0.0464249
0.0464373
0.0467961
0.0467595
0.0468815
0.0472343
0.047241
0.0468731
0.0468813
0.0472334
0.0472407
0.0468893
0.0472429
0.0472506
0.0468833
0.0468924
0.0472436
0.0472528
0.0468976
0.0472532
0.0472573
0.0468955
0.0469001
0.0472547
0.0472584
0.0468916
0.0472573
0.0472532
0.0469001
0.0468955
0.0472584
0.0472547
0.0468835
0.0472506
0.0472429
0.0468924
0.0468833
0.0472528
0.0472436
0.0468733
0.047241
0.0472343
0.0468813
0.0468731
0.0472407
0.0472334
0.0473693
0.0477786
0.0477856
0.0473615
0.0473693
0.0477775
0.0477867
0.0473793
0.0477874
0.0477902
0.0473726
0.0473807
0.0477885
0.0477909
0.047384
0.0477904
0.0477908
0.0473826
0.0473849
0.0477911
0.0477914
0.0473815
0.0477908
0.0477904
0.0473849
0.0473826
0.0477914
0.0477911
0.0473715
0.0477902
0.0477874
0.0473807
0.0473726
0.0477909
0.0477885
0.0473628
0.0477856
0.0477786
0.0473693
0.0473615
0.0477867
0.0477775
0.0479349
0.0483382
0.0483394
0.0479284
0.0479358
0.0483384
0.0483399
0.0479368
0.04834
0.0483403
0.0479365
0.0479374
0.0483403
0.0483406
0.0479372
0.0483405
0.0483406
0.0479375
0.0479377
0.0483407
0.0483408
0.047937
0.0483406
0.0483405
0.0479377
0.0479375
0.0483408
0.0483407
0.0479355
0.0483403
0.04834
0.0479374
0.0479365
0.0483406
0.0483403
0.0479292
0.0483394
0.0483382
0.0479358
0.0479284
0.0483399
0.0483384
0.0447368
0.0434596
0.0444144
0.0433358
0.0447416
0.0434601
0.0444281
0.0453043
0.0444533
0.0454813
0.0447157
0.0449709
0.0444433
0.0451189
0.0524202
0.0468994
0.0562042
0.0449936
0.045076
0.0451407
0.0452332
0.0466791
0.0562453
0.0469088
0.0450672
0.0449927
0.0452213
0.0451401
0.0447116
0.0454815
0.0444609
0.0449731
0.0447195
0.0451206
0.0444488
0.0433286
0.044432
0.0434594
0.0447506
0.0433364
0.0444393
0.0434601
0.0442929
0.0436425
0.0439751
0.0435057
0.044308
0.0436414
0.0439868
0.0455456
0.0441116
0.0457626
0.044339
0.0451728
0.0440593
0.0453538
0.0573827
0.0472306
0.060838
0.0451936
0.04529
0.0453712
0.0454836
0.0469822
0.0609343
0.0472434
0.0452775
0.0451933
0.0454705
0.045372
0.0443663
0.0457623
0.0441196
0.0451741
0.0443449
0.045353
0.0440657
0.0435053
0.0439875
0.0436424
0.0443192
0.0435057
0.0439948
0.0436413
0.0439137
0.0438374
0.0438718
0.0436894
0.0439226
0.0438359
0.0438719
0.0458436
0.0440549
0.0461187
0.0440039
0.045422
0.0439661
0.0456549
0.0619172
0.0477023
0.065129
0.0454382
0.0455565
0.0456678
0.0458019
0.0473467
0.0653406
0.0477181
0.0455434
0.0454396
0.045789
0.0456706
0.0440743
0.046119
0.044059
0.0454204
0.0440103
0.0456511
0.0439729
0.0436905
0.0438748
0.0438373
0.0439289
0.0436894
0.0438735
0.0438358
0.0438983
0.0440427
0.0440356
0.0438862
0.0438965
0.0440417
0.0440313
0.0462173
0.0442192
0.0465255
0.0439919
0.045739
0.0441239
0.0459976
0.0661423
0.0482666
0.0691168
0.0457521
0.0458897
0.046015
0.0461621
0.047854
0.0694565
0.0482852
0.0458766
0.0457552
0.0461477
0.0460183
0.0440882
0.0465276
0.044221
0.0457349
0.0439984
0.0459941
0.044129
0.0438875
0.0440354
0.0440426
0.0438971
0.0438862
0.0440307
0.0440417
0.04409
0.0442611
0.0442587
0.0440952
0.0440856
0.0442608
0.0442543
0.0466278
0.0444125
0.0469371
0.0441755
0.0460833
0.0443307
0.0463405
0.0700492
0.0488261
0.0730239
0.0461027
0.0462517
0.0463645
0.0465243
0.0484276
0.0734038
0.0488525
0.046237
0.046106
0.0465178
0.0463673
0.0442705
0.0469423
0.0444139
0.0460804
0.0441801
0.0463388
0.0443327
0.044096
0.0442584
0.044261
0.044085
0.0440952
0.0442539
0.0442608
0.044291
0.044495
0.0445159
0.0443178
0.0442893
0.0444946
0.0445123
0.0473189
0.044499
0.0477479
0.0442647
0.0463823
0.0445011
0.0467025
0.090168
0.0487669
0.104272
0.0463907
0.0464995
0.0467192
0.0468393
0.0481772
0.104606
0.0487945
0.0465042
0.0463977
0.0468379
0.0467201
0.0442866
0.0477557
0.044498
0.0463876
0.0442629
0.0467084
0.0445008
0.0443179
0.0445153
0.044495
0.0442879
0.0443178
0.0445118
0.0444946
0.0445474
0.0447448
0.0447714
0.0445552
0.0445428
0.0447432
0.0447618
0.0477984
0.0447644
0.0475393
0.0445327
0.0467326
0.0447597
0.0464503
0.104925
0.0486143
0.106436
0.0467519
0.0468625
0.0464975
0.0464369
0.0488636
0.104699
0.0486377
0.0468601
0.0467517
0.046425
0.0464836
0.0445293
0.0475442
0.0447634
0.0467409
0.0445324
0.0464845
0.0447595
0.044556
0.0447708
0.0447447
0.0445424
0.0445552
0.0447616
0.0447432
0.0448039
0.04501
0.0450384
0.0448078
0.0447939
0.0450089
0.0450278
0.0473942
0.0450455
0.046001
0.0447928
0.0463192
0.0450281
0.045105
0.109683
0.0463746
0.240226
0.0463713
0.0462891
0.0451124
0.0451948
0.0484824
0.234883
0.0464529
0.046276
0.0463529
0.0451919
0.0451068
0.0447981