/*--------------------------------*- C++ -*----------------------------------*\
| =========                 |                                                 |
| \\      /  F ield         | OpenFOAM: The Open Source CFD Toolbox           |
|  \\    /   O peration     | Version:  2206                                  |
|   \\  /    A nd           | Website:  www.openfoam.com                      |
|    \\/     M anipulation  |                                                 |
\*---------------------------------------------------------------------------*/
FoamFile
{
    version     2.0;
    format      ascii;
    arch        "LSB;label=32;scalar=64";
    class       volScalarField;
    location    "400";
    object      omega;
}
// * * * * * * * * * * * * * * * * * * * * * * * * * * * * * * * * * * * * * //

dimensions      [0 0 -1 0 0 0 0];

internalField   nonuniform List<scalar> 
198968
(
8.40088
7.51799
7.52026
7.52105
7.52104
7.52024
7.51791
8.40948
8.89254
9.04925
9.0917
9.09043
9.08481
9.0938
9.07748
8.90227
10.3289
9.11121
9.16756
9.16666
9.16224
9.1703
9.15311
9.0843
10.1855
9.36076
9.42818
9.42799
9.42327
9.43223
9.41053
9.33131
10.2443
9.61125
9.70803
9.71441
9.71117
9.71855
9.67997
9.56998
10.5686
9.8229
9.92782
9.95334
9.96904
9.94293
9.90231
9.78208
10.895
10.0434
10.1792
10.2139
10.2399
10.1948
10.1517
9.99259
11.2481
10.3262
10.4372
10.4984
10.5261
10.4628
10.4263
10.2579
11.6574
10.6817
10.7336
10.8101
10.821
10.7741
10.7354
10.6239
11.9674
11.1678
11.1843
11.205
11.2076
11.2012
11.1924
11.1166
12.2419
11.7233
11.7681
11.7757
11.7768
11.7745
11.7697
11.6713
12.6208
12.3712
12.4507
12.4545
12.4551
12.4545
12.4478
12.3226
13.5269
13.1918
13.2582
13.2594
13.2597
13.2593
13.2584
13.1094
14.7028
14.325
14.3344
14.3349
14.3351
14.3348
14.3354
14.1551
16.105
15.6593
15.665
15.667
15.6677
15.6666
15.6674
15.4477
17.7971
17.2655
17.2698
17.2704
17.2705
17.2703
17.27
17.0034
19.6676
19.236
19.2383
19.2386
19.2386
19.2385
19.2382
18.8928
22.244
21.7139
21.7147
21.7147
21.7147
21.7147
21.7149
21.2717
25.5387
24.9285
24.9261
24.9251
24.9249
24.9255
24.9272
24.3893
30.6544
29.2464
29.243
29.2396
29.2389
29.241
29.2449
30.6544
10.0207
6.74331
6.7461
6.74772
6.74744
6.74706
6.74566
6.70848
10.1434
7.08952
7.09184
7.09342
7.09297
7.09279
7.09173
7.04925
10.2717
7.39996
7.40179
7.40351
7.4031
7.40276
7.40201
7.35961
10.402
7.73572
7.73732
7.73875
7.73846
7.73792
7.73803
7.69215
10.5505
8.10325
8.1054
8.10743
8.10711
8.1064
8.10582
8.05503
10.6778
8.51656
8.51613
8.51559
8.51465
8.51561
8.51728
8.47581
10.8485
8.97596
8.97349
8.973
8.97143
8.97333
8.97428
8.9519
11.0674
9.48354
9.48287
9.48163
9.47999
9.4825
9.48289
9.45503
11.3222
10.0507
10.0513
10.0503
10.0495
10.0508
10.0512
10.0445
11.6798
10.6862
10.6877
10.6895
10.6894
10.6882
10.6874
10.6755
12.0901
11.4143
11.4099
11.411
11.4106
11.4103
11.4129
11.4041
12.5452
12.2477
12.2417
12.2398
12.2398
12.2404
12.2458
12.2459
13.184
13.2045
13.2025
13.2012
13.2006
13.2011
13.2039
13.2006
14.3335
14.328
14.3279
14.3298
14.3296
14.3301
14.3277
14.3233
15.6703
15.6677
15.6828
15.6887
15.6894
15.689
15.6824
15.6661
17.279
17.283
17.2966
17.3002
17.3001
17.299
17.2946
17.2793
19.2653
19.2636
19.2726
19.2744
19.2743
19.2753
19.2685
19.253
21.7601
21.7638
21.7717
21.766
21.7621
21.7699
21.7702
21.7486
25.0024
25.0013
24.9992
24.9944
24.9919
24.9965
25.0013
24.9978
29.3243
29.3112
29.2972
29.2908
29.2883
29.2929
29.3053
29.3164
10.323
6.74988
6.81043
6.8202
6.82076
6.81732
6.8021
6.73183
10.5289
7.09407
7.13623
7.14371
7.14319
7.14129
7.13134
7.07329
10.7005
7.4048
7.42934
7.4303
7.42898
7.42898
7.42942
7.38071
10.9338
7.69596
7.70111
7.70035
7.70037
7.70018
7.70118
7.70451
11.2037
8.06397
8.06888
8.06928
8.06922
8.06912
8.06874
8.06586
11.527
8.46788
8.47147
8.4719
8.47159
8.47186
8.47144
8.46923
11.9346
8.9174
8.91882
8.91918
8.91857
8.91922
8.91865
8.91752
12.3389
9.41624
9.41578
9.41616
9.41533
9.41633
9.41559
9.42035
15.8723
9.97289
9.97131
9.97109
9.97067
9.97135
9.97156
9.9726
15.6929
10.6005
10.5959
10.5945
10.5942
10.5947
10.5969
10.6005
15.1183
11.3136
11.3054
11.3002
11.3005
11.3005
11.3077
11.3138
14.3664
12.1356
12.1244
12.1108
12.1122
12.1113
12.1279
12.1334
13.953
13.0766
13.0731
13.0633
13.0568
13.0643
13.0745
13.0758
14.1906
14.1747
14.1686
14.1667
14.1622
14.1706
14.1696
14.1744
15.4794
15.4837
15.5065
15.5263
15.5245
15.5247
15.4993
15.4798
17.0407
17.0643
17.0851
17.0997
17.1031
17.0971
17.0805
17.0549
18.9609
18.9896
19.0214
19.0584
19.0612
19.0534
19.0132
18.9773
21.7692
21.4222
21.4523
21.4809
21.4867
21.4746
21.4447
21.7911
25.0137
24.5444
24.5517
24.5678
24.5736
24.5633
24.5488
25.02
29.3018
29.292
29.295
29.299
29.3007
29.2969
29.2922
29.2962
10.332
6.81584
8.29834
9.13624
9.14057
9.10125
7.64343
6.72511
10.5389
7.14407
8.66414
9.68887
9.68833
9.65214
7.86668
7.06473
10.7379
7.44111
8.97919
10.1983
10.1945
10.1593
8.04291
7.36946
10.9889
7.68172
8.32456
10.6285
10.5885
10.6143
8.11795
7.70376
11.2624
8.05639
8.41771
11.1527
11.1046
11.1362
8.20539
8.06276
11.6267
8.46313
8.6539
11.7244
11.6631
11.7011
8.47547
8.4645
11.9627
8.91367
9.02742
12.3306
12.2413
12.2951
8.89815
8.91736
12.483
9.41321
9.48028
12.9241
12.7996
12.8662
9.39873
9.42014
16.1978
9.97422
9.85311
13.3863
13.1512
13.3627
9.91271
9.97299
15.4561
10.6064
10.553
12.8983
12.5965
12.8415
10.5605
10.6066
14.7441
11.3183
11.262
11.9902
11.7896
11.9593
11.2633
11.3194
14.4926
12.1299
12.0646
12.0306
12.0412
12.0298
12.0681
12.1315
14.2513
13.0747
12.9969
12.9529
12.9497
12.9527
12.9909
13.0753
14.1333
14.1722
14.0947
14.0531
14.0515
14.0528
14.0933
14.1712
15.4792
15.4883
15.4111
15.4048
15.4157
15.4057
15.408
15.4841
17.041
17.0726
16.9999
17.0475
17.0716
17.0448
16.9929
17.0592
18.9556
19.0027
19.0488
19.0865
19.1145
19.076
19.0395
18.9825
21.736
21.4106
21.4554
21.5078
21.5209
21.4964
21.4438
21.7655
24.9955
24.5393
24.5765
24.5851
24.5866
24.584
24.5723
25.0103
29.2953
29.297
29.303
29.305
29.3054
29.3042
29.3009
29.296
9.31287
6.80899
8.32653
9.25132
10.0577
9.11379
7.63981
6.72391
9.98634
7.13792
8.70074
9.8478
10.9446
9.66641
7.86229
7.06197
10.7554
7.43611
9.02279
10.3902
11.7794
10.1704
8.03818
7.364
10.9837
7.68852
8.38778
10.705
14.497
10.6201
8.10138
7.69931
11.268
8.0578
8.49233
11.2362
16.1291
11.1442
8.19134
8.06024
11.6408
8.46341
8.73078
11.8243
17.9711
11.7157
8.46446
8.46072
11.9707
8.9131
9.09356
12.4561
20.1626
12.317
8.88946
8.91507
12.5048
9.41222
9.5256
13.0885
22.9894
12.9036
9.39183
9.42016
16.2582
9.97176
9.84069
13.5244
31.7599
13.4097
9.90063
9.97207
15.4967
10.6053
10.528
13.1214
39.0629
12.9561
10.5514
10.6072
14.7283
11.3194
11.2514
12.3145
52.6118
12.1286
11.2573
11.3206
14.5422
12.1303
12.0611
12.2451
81.0626
12.1732
12.0639
12.1333
14.2741
13.0731
12.9891
13.1862
90.479
13.1182
12.9923
13.0749
14.1316
14.1702
14.0886
14.1887
14.1425
14.0892
14.1706
15.48
15.5037
15.4378
15.4484
15.6546
15.4444
15.4355
15.4959
17.0403
17.0681
17.0204
17.0599
17.0974
17.0507
17.0154
17.0582
18.9526
19.0015
19.0481
19.1052
19.1278
19.0899
19.0389
18.9824
21.7263
21.4037
21.4612
21.5138
21.5255
21.5039
21.4442
21.7607
24.9936
24.5346
24.5825
24.5882
24.5896
24.5874
24.5781
25.0092
29.2962
29.2984
29.3039
29.3059
29.3064
29.3051
29.3021
29.297
9.68543
6.81508
7.86595
8.24548
8.24762
8.20562
7.61736
6.7052
10.374
7.14467
8.13214
8.58878
8.5929
8.54042
7.84287
7.04564
10.713
7.44165
8.35173
8.88666
8.89239
8.83101
8.02413
7.36688
10.9834
7.67669
8.2556
9.89632
9.92873
9.85618
8.13666
7.69468
11.265
8.04891
8.33868
10.2441
10.283
10.199
8.21538
8.05457
11.6077
8.4611
8.57725
10.6528
10.6918
10.606
8.48269
8.45797
11.9716
8.91394
8.96296
11.1584
11.1524
11.1217
8.90466
8.90547
12.4203
9.41443
9.43846
11.6542
11.6564
11.6026
9.404
9.42232
16.1347
9.9755
9.86594
13.4737
13.2687
13.4315
9.91139
9.97417
15.4812
10.6051
10.5532
12.8119
12.5542
12.7553
10.5597
10.6055
14.8771
11.3178
11.2619
11.9609
11.7818
11.9255
11.2626
11.3187
14.47
12.1299
12.0657
12.0288
12.0334
12.0284
12.0685
12.1324
14.2442
13.0743
12.9894
12.9537
12.9481
12.9519
13.0016
13.0762
14.1333
14.1722
14.099
14.0531
14.0478
14.0528
14.098
14.1725
15.4788
15.485
15.4088
15.4035
15.4153
15.4042
15.4079
15.482
17.0424
17.0705
16.9956
17.0443
17.0555
17.0421
16.9922
17.0599
18.9613
19.0001
19.0485
19.0779
19.1025
19.0711
19.0389
18.9843
21.7569
21.4141
21.4559
21.5003
21.5162
21.4889
21.4459
21.7815
25.0035
24.5379
24.574
24.5827
24.5854
24.5814
24.5676
25.0151
29.2951
29.2941
29.2996
29.3032
29.3035
29.302
29.2967
29.2933
10.0623
6.74936
6.74667
6.74431
6.74402
6.74465
6.74808
6.69682
10.2146
7.09492
7.09341
7.09117
7.09086
7.09171
7.09601
7.03381
10.3501
7.4062
7.40847
7.40883
7.4086
7.40912
7.41052
7.33815
10.4633
7.74518
7.74779
7.74855
7.7484
7.74846
7.74882
7.66878
10.6407
8.11385
8.11761
8.11855
8.1183
8.11864
8.11818
8.02451
10.8263
8.525
8.52639
8.52647
8.5258
8.52681
8.52629
8.41774
11.0859
8.98195
8.98014
8.97996
8.9791
8.98045
8.97978
8.85575
11.3443
9.48609
9.48375
9.48326
9.48226
9.48401
9.48345
9.35375
11.6362
9.97405
9.97239
9.9715
9.97052
9.9721
9.97175
9.979
11.9353
10.6026
10.5972
10.5963
10.5955
10.5962
10.5959
10.5935
12.2116
11.3147
11.3087
11.3058
11.3048
11.3034
11.3075
11.3131
12.7123
12.1305
12.125
12.1171
12.114
12.1159
12.1261
12.1349
13.3125
13.0753
13.0722
13.0666
13.0612
13.0674
13.0729
13.0769
14.3345
14.1707
14.1665
14.1672
14.1632
14.1696
14.1669
14.1733
15.6625
15.4809
15.5065
15.5185
15.5165
15.5193
15.4986
15.4805
17.27
17.0601
17.0779
17.0885
17.0884
17.0892
17.0725
17.0535
19.2517
18.9835
19.0044
19.0262
19.0269
19.0279
18.9943
19.27
21.7644
21.7828
21.8043
21.8121
21.8161
21.81
21.7941
21.7761
25.0174
25.0191
25.0217
25.0264
25.0267
25.024
25.0204
25.0199
29.3178
29.3004
29.2943
29.2949
29.2952
29.2939
29.2965
29.3074
8.42156
7.51539
7.51911
7.52045
7.52047
7.51975
7.51751
8.39931
8.89556
6.73817
6.71927
6.72483
6.72978
6.71962
6.7321
8.89085
10.259
7.1454
7.12512
7.13074
7.13568
7.12555
7.13789
6.78472
10.1748
7.46851
7.44474
7.45095
7.45636
7.44524
7.45835
7.36424
10.2032
7.81845
7.78913
7.79471
7.7997
7.78922
7.80457
7.717
10.3708
8.24536
8.20609
8.19901
8.1882
8.20537
8.22896
8.14618
10.6744
8.75226
8.70221
8.69154
8.67333
8.70324
8.73037
8.68133
11.0242
9.33563
9.29277
9.2587
9.23509
9.28428
9.30902
9.29106
11.4545
10.0004
9.98516
9.9194
9.90433
9.95709
9.98671
9.94861
11.8462
10.6628
10.6957
10.6816
10.6802
10.6828
10.6908
10.5714
12.2831
11.3845
11.418
11.4174
11.417
11.4176
11.4125
11.2842
12.8065
12.2462
12.2473
12.2478
12.248
12.2474
12.25
12.1167
13.4533
13.1994
13.2059
13.2056
13.2056
13.2056
13.2075
13.0489
14.502
14.3236
14.3311
14.3322
14.3326
14.3316
14.332
14.1424
15.8634
15.6618
15.6724
15.6777
15.6797
15.6754
15.6697
15.4354
17.5133
17.2734
17.2838
17.2859
17.2862
17.2853
17.2817
16.9923
19.5609
19.2505
19.2553
19.2562
19.2564
19.256
19.255
18.8989
22.1505
21.7382
21.739
21.7385
21.7385
21.7386
21.7399
21.2845
25.5166
24.9646
24.9634
24.9628
24.9623
24.9633
24.9643
24.4124
30.6544
29.2915
29.2845
29.2828
29.2826
29.2829
29.2887
30.6544
7.70112
7.9698
7.97401
7.6765
8.13423
7.95414
8.17743
7.70037
7.97414
7.97426
8.268
9.86054
8.31609
10.1109
7.70034
7.9743
7.97426
9.88632
9.92903
10.1398
10.1873
7.70025
7.97425
7.97432
9.93026
9.89174
10.1887
10.1451
7.70114
7.97413
7.97415
9.86167
8.25764
10.111
8.3074
7.69644
7.974
7.96971
8.12649
7.6765
8.17199
7.95425
8.06874
8.36268
8.36662
8.0487
8.21517
8.35577
8.39853
8.06922
8.36674
8.36727
8.34924
10.2043
8.51084
10.5025
8.06922
8.36732
8.36722
10.234
10.2827
10.5333
10.5834
8.06931
8.36722
8.36741
10.2843
10.2391
10.5854
10.5378
8.06888
8.36722
8.36672
10.2039
8.34136
10.5004
8.50556
8.06388
8.3666
8.36258
8.21065
8.04878
8.39682
8.35578
8.47145
8.80125
8.80254
8.46102
8.48347
8.79796
8.7906
8.4719
8.8026
8.80305
8.58406
10.6115
8.85919
10.9933
8.4716
8.80299
8.80245
10.6415
10.6908
11.0071
11.0311
8.47201
8.80245
8.8031
10.6929
10.6459
11.0337
11.0111
8.47145
8.80301
8.80259
10.6087
8.5795
10.9886
8.85613
8.46779
8.80252
8.80116
8.48247
8.46102
8.79084
8.79793
8.91867
9.28732
9.28617
8.9139
8.90538
9.28337
9.2747
8.91927
9.28638
9.287
8.9677
11.1287
9.31723
11.4918
8.91858
9.28682
9.28602
11.1449
11.1518
11.5191
11.5417
8.9193
9.28601
9.28694
11.1544
11.1489
11.5448
11.5234
8.91881
9.28696
9.28636
11.1233
8.96496
11.485
9.31517
8.91732
9.28615
9.28724
8.90576
8.91388
9.27511
9.28334
9.4156
9.82763
9.82649
9.41435
9.40496
9.82932
9.81778
9.41637
9.82636
9.82671
9.44173
11.6102
9.8379
11.9474
9.41535
9.82642
9.82585
11.6371
11.6572
11.9721
11.9673
9.41629
9.82584
9.82655
11.6605
11.6418
11.9709
11.9778
9.41576
9.82666
9.82635
11.6031
9.43988
11.9403
9.83681
9.41616
9.82648
9.82756
9.40532
9.41431
9.81804
9.82933
9.97157
10.4365
10.4332
9.97546
9.91507
10.4404
10.4775
9.9714
10.4326
10.4317
9.86595
13.4541
10.4668
12.857
9.97068
10.4316
10.4313
13.4686
13.2647
12.8882
12.6523
9.97122
10.4313
10.4317
13.2684
13.4647
12.6547
12.8978
9.97131
10.4317
10.4326
13.4527
9.86619
12.8701
10.4675
9.97281
10.4332
10.4364
9.91541
9.97549
10.4777
10.4404
10.5969
11.1257
11.1208
10.605
10.5598
11.1308
11.1701
10.5947
11.1189
11.1153
10.5515
12.7671
11.1681
12.0022
10.5942
11.1148
11.1146
12.7976
12.5515
12.0233
11.8285
10.5947
11.1146
11.1149
12.5562
12.8081
11.8323
12.0379
10.5959
11.1152
11.1189
12.7822
10.5525
12.025
11.1686
10.6004
11.1208
11.1259
10.5599
10.605
11.1703
11.1312
11.3077
11.9192
11.9119
11.3175
11.2627
11.9168
11.9615
11.3006
11.9074
11.8969
11.2612
11.9261
11.958
11.9763
11.3005
11.8967
11.8994
11.9453
11.7742
11.9768
11.9808
11.3003
11.8994
11.8967
11.7775
11.9597
11.9807
11.9767
11.3054
11.8967
11.9073
11.9474
11.2616
11.9763
11.9579
11.3137
11.9115
11.9179
11.2629
11.3179
11.9614
11.9166
12.1287
12.8281
12.8259
12.1304
12.0687
12.8248
12.878
12.1114
12.8236
12.8132
12.0657
12.0284
12.8761
12.8883
12.1122
12.8113
12.8022
12.0286
12.0343
12.8872
12.8844
12.1108
12.8034
12.8082
12.0342
12.0283
12.8843
12.8869
12.1242
12.8126
12.8235
12.0281
12.0656
12.8872
12.8664
12.133
12.8256
12.8275
12.0686
12.1301
12.8678
12.8243
13.0746
13.8829
13.8788
13.0746
13.0017
13.8802
13.9508
13.0651
13.8777
13.8742
13.0006
12.9527
13.9513
13.9811
13.0549
13.8719
13.8684
12.9526
12.9482
13.9812
13.9698
13.061
13.868
13.8727
12.9481
12.9522
13.9697
13.9808
13.0731
13.8744
13.8777
12.9523
12.9894
13.981
13.9513
13.0766
13.8788
13.8829
12.9913
13.0745
13.9508
13.8802
14.1696
15.1359
15.1416
14.1724
14.098
15.1379
15.2313
14.1691
15.1468
15.1631
14.099
14.0529
15.2316
15.3142
14.1637
15.1643
15.1615
14.053
14.0476
15.3159
15.3285
14.1711
15.1608
15.1641
14.0475
14.0529
15.3283
15.3159
14.1686
15.163
15.1468
14.0529
14.0991
15.3142
15.2316
14.1747
15.1416
15.1359
14.098
14.1723
15.2313
15.1379
15.4993
16.6382
16.6595
15.4852
15.4078
16.6458
16.7821
15.5247
16.664
16.6742
15.4087
15.4026
16.7849
16.8266
15.5252
16.676
16.6792
15.4034
15.4149
16.8291
16.8526
15.5262
16.6793
16.6759
15.4147
15.4034
16.8526
16.8291
15.5065
16.6741
16.664
15.4026
15.4087
16.8267
16.784
15.4837
16.6595
16.6384
15.4078
15.4852
16.7806
16.6457
17.0803
18.4684
18.4906
17.0709
16.9922
18.4778
18.6462
17.0971
18.4976
18.5238
16.9962
17.0419
18.6518
18.6778
17.103
18.5295
18.5351
17.0444
17.067
18.6808
18.7094
17.0997
18.5353
18.5294
17.067
17.0444
18.7094
18.6808
17.0851
18.5238
18.4976
17.0419
16.9956
18.6778
18.6518
17.0645
18.4905
18.4684
16.991
17.0707
18.6462
18.4778
19.0132
20.7587
20.783
19.0005
19.0389
20.7555
20.7875
19.0534
20.791
20.8138
19.0484
19.0729
20.7971
20.8276
19.0612
20.8188
20.8243
19.0823
19.1049
20.8426
20.8661
19.0584
20.8252
20.8188
19.1049
19.0823
20.8661
20.8426
19.0214
20.8138
20.791
19.0729
19.0484
20.8276
20.7971
18.9896
20.783
20.7587
19.0389
19.0005
20.7875
20.7555
21.4447
23.6909
23.6987
21.4146
21.4459
23.6733
23.7056
21.4746
23.7011
23.7124
21.4559
21.4901
23.7166
23.7323
21.4862
23.718
23.7243
21.5033
21.5177
23.7344
23.7378
21.4809
23.7243
23.718
21.5177
21.5033
23.7378
23.7344
21.4523
23.7124
23.7011
21.4901
21.4559
23.7323
23.7166
21.4222
23.6987
23.6909
21.4459
21.4146
23.7056
23.6733
24.5488
27.0097
27.013
24.5383
24.5676
27.0141
27.0226
24.5633
27.0166
27.023
24.574
24.5813
27.0276
27.0301
24.5734
27.0268
27.028
24.5825
24.585
27.0328
27.034
24.5678
27.0281
27.0268
24.585
24.5825
27.034
27.0328
24.5517
27.023
27.0166
24.5813
24.574
27.0301
27.0276
24.5444
27.013
27.0097
24.5676
24.5383
27.0226
27.0141
8.12334
7.96191
8.17055
7.68837
8.10223
7.96326
8.15321
10.6223
8.38564
11.0093
8.3945
10.6203
8.4604
11.0078
10.5887
11.0182
10.9705
10.7059
14.4887
11.0984
15.6955
10.63
10.9724
11.018
14.4908
10.7058
15.6933
11.0984
8.32364
11.0026
8.38295
10.6208
8.3913
11.0083
8.45888
7.68235
8.16934
7.96195
8.09537
7.68854
8.14805
7.96336
8.20883
8.35869
8.39193
8.05771
8.19261
8.35912
8.37943
11.1456
8.58149
11.5666
8.4974
11.1448
8.65976
11.5689
11.1051
11.5796
11.5198
11.2376
16.1189
11.673
17.4619
11.1549
11.5226
11.5794
16.1158
11.2376
17.4578
11.6733
8.41844
11.5586
8.58135
11.1454
8.4965
11.5697
8.66054
8.05639
8.39134
8.35867
8.18817
8.0578
8.3772
8.35913
8.47647
8.79788
8.78324
8.46337
8.46509
8.79735
8.77426
11.7128
8.92451
12.1596
8.73293
11.7163
8.99564
12.1653
11.6632
12.1799
12.0951
11.8258
17.9381
12.2967
19.4916
11.7273
12.0993
12.1796
17.9344
11.8262
19.4909
12.2974
8.65539
12.1487
8.92569
11.7171
8.73407
12.1666
8.9971
8.4631
8.7831
8.79784
8.46343
8.46338
8.77369
8.79733
8.89822
9.2827
9.26825
8.91308
8.88976
9.28211
9.2611
12.3114
9.36172
12.7474
9.0945
12.3176
9.41268
12.7588
12.2411
12.783
12.6618
12.4582
20.0643
12.9331
22.0067
12.3345
12.6681
12.7826
20.0648
12.4592
22.0099
12.935
9.02926
12.7314
9.36307
12.319
9.09587
12.7609
9.41355
8.91363
9.26812
9.28267
8.88935
8.91306
9.26082
9.2821
9.39883
9.82779
9.81308
9.4122
9.3921
9.82541
9.80776
12.8899
9.86072
13.2767
9.52644
12.904
9.8901
13.2999
12.799
13.3271
13.1663
13.0911
22.758
13.5376
25.4521
12.9297
13.17
13.3314
22.7613
13.0934
25.4533
13.5415
9.48206
13.2489
9.86222
12.9064
9.52717
13.3034
9.89038
9.41318
9.8129
9.82778
9.39182
9.41219
9.8075
9.82542
9.91303
10.4416
10.4782
9.97174
9.90112
10.4395
10.4686
13.3908
10.4693
12.985
9.84074
13.4081
10.4425
13.0429
13.1507
13.001
12.6998
13.5224
31.5057
13.202
37.6386
13.3869
12.708
12.9917
31.4999
13.5289
37.5955
13.2115
9.85231
12.9464
10.4693
13.4126
9.8402
13.0483
10.442
9.97421
10.4783
10.4416
9.90066
9.97175
10.4684
10.4395
10.5604
11.1321
11.1708
10.6053
10.5516
11.1332
11.1647
12.894
11.1691
12.092
10.528
12.9565
11.1574
12.2065
12.5976
12.0853
11.845
13.1212
38.7477
12.3897
49.6602
12.9009
11.8523
12.0793
38.6802
13.1313
49.1942
12.402
10.553
12.0506
11.1691
12.9621
10.5276
12.2111
11.157
10.6064
11.1708
11.1321
10.5514
10.6054
11.1646
11.1333
11.2634
11.9164
11.9607
11.3194
11.2575
11.9163
11.9569
12.0067
11.9571
11.9783
11.2514
12.1294
11.9546
12.1253
11.79
11.9789
11.9876
12.3118
51.9991
12.1952
79.8553
11.9926
11.9875
11.9786
51.4584
12.3245
80.103
12.2063
11.2619
11.9779
11.9568
12.1333
11.2511
12.1234
11.9545
11.3184
11.9606
11.9164
11.2573
11.3194
11.9569
11.9163
12.0681
12.8246
12.8733
12.1303
12.064
12.8239
12.8659
12.0301
12.8718
12.8865
12.0611
12.1746
12.8642
13.0522
12.0413
12.8858
12.8882
12.244
80.9421
13.1254
84.9182
12.0301
12.8881
12.8855
81.2899
12.2567
88.7898
13.1356
12.0645
12.8858
12.866
12.173
12.061
13.0578
12.8643
12.1299
12.8675
12.8246
12.064
12.1304
12.866
12.8239
12.9975
13.88
13.9471
13.0731
12.9922
13.8787
13.9435
12.9531
13.9479
13.9807
12.9891
13.1127
13.943
14.0727
12.9497
13.9813
13.9726
13.1863
87.2528
14.1223
85.6269
12.9527
13.9724
13.9788
91.5997
13.1962
86.2031
14.1227
12.9887
13.98
13.9479
13.1183
12.9892
14.0731
13.9429
13.0747
13.947
13.8798
12.9923
13.0731
13.9434
13.8781
14.0933
15.1396
15.2319
14.1713
14.0893
15.149
15.2586
14.0529
15.234
15.3151
14.0888
14.1419
15.2618
15.3541
14.0517
15.3158
15.3297
14.1884
15.3614
15.6746
14.0525
15.3294
15.3158
14.1887
15.6746
15.3614
14.0947
15.3152
15.234
14.1422
14.0887
15.3541
15.2621
14.1717
15.2319
15.1396
14.0893
14.17
15.2594
15.1492
15.4081
16.6487
16.7841
15.5037
15.4355
16.6484
16.8011
15.4057
16.7871
16.8325
15.4379
15.4441
16.808
16.8383
15.416
16.8353
16.8592
15.448
15.6545
16.8455
16.8864
15.4047
16.8592
16.8353
15.6545
15.4481
16.8864
16.8455
15.4111
16.8325
16.7851
15.4441
15.4379
16.8384
16.8084
15.4883
16.7816
16.6486
15.4357
15.5037
16.8015
16.6482
16.9951
18.4809
18.6469
17.0687
17.0154
18.4795
18.6469
17.0448
18.6519
18.6783
17.0204
17.0495
18.6515
18.6962
17.0716
18.6818
18.7168
17.0588
17.0965
18.7067
18.7319
17.0475
18.7168
18.6818
17.0965
17.0588
18.7319
18.7067
16.9983
18.6783
18.6519
17.0495
17.0205
18.6962
18.6515
17.072
18.6469
18.4804
17.0155
17.0681
18.6469
18.4793
19.0395
20.7533
20.7861
19.0015
19.0389
20.7484
20.785
19.076
20.7961
20.8352
19.0481
19.0901
20.7998
20.8463
19.1145
20.8483
20.8695
19.1047
19.1262
20.8561
20.8746
19.0865
20.8695
20.8483
19.1262
19.1047
20.8746
20.8561
19.0488
20.8352
20.7961
19.0901
19.0481
20.8463
20.7998
19.0026
20.7861
20.7533
19.0389
19.0015
20.785
20.7484
21.4438
23.6707
23.7096
21.4037
21.4442
23.664
23.7164
21.4964
23.7202
23.7364
21.4612
21.5039
23.7267
23.7405
21.5209
23.7379
23.7396
21.5138
21.5255
23.7415
23.7431
21.5078
23.7396
23.7379
21.5255
21.5138
23.7431
23.7415
21.4554
23.7364
23.7202
21.5039
21.4612
23.7405
23.7267
21.4106
23.7096
23.6707
21.4442
21.4037
23.7164
23.664
24.5723
27.0211
27.0287
24.5346
24.5781
27.0225
27.0317
24.584
27.0325
27.0349
24.5825
24.5874
27.0344
27.0362
24.5866
27.0361
27.0367
24.5882
24.5896
27.0375
27.0381
24.5851
27.0367
27.0361
24.5896
24.5882
27.0381
27.0375
24.5765
27.0349
27.0325
24.5874
24.5825
27.0362
27.0344
24.5393
27.0287
27.0211
24.5781
24.5346
27.0317
27.0225
8.09511
7.96333
8.14798
7.68236
8.11723
7.96198
8.16657
10.6202
8.45776
11.0076
8.32231
10.6103
8.38238
10.9962
14.4954
11.0993
15.7025
10.6242
10.591
11.011
10.9732
10.7058
15.702
11.0984
10.5798
10.6182
10.9611
11.0045
8.39755
11.0095
8.46367
10.6229
8.32418
11.0101
8.3841
7.6884
8.1546
7.96325
8.12384
7.68187
8.17056
7.96199
8.18818
8.35915
8.37737
8.05642
8.20549
8.35869
8.39045
11.1446
8.65865
11.5687
8.41816
11.132
8.58197
11.5506
16.1273
11.6742
17.4821
11.1475
11.108
11.5703
11.5237
11.2377
17.486
11.6733
11.0954
11.1408
11.5092
11.5625
8.50069
11.5711
8.66294
11.1464
8.41976
11.5675
8.58302
8.0577
8.37949
8.35907
8.20869
8.05642
8.39141
8.35867
8.46363
8.79737
8.7739
8.46312
8.47544
8.79785
8.78299
11.7161
8.9955
12.165
8.65623
11.6957
8.92703
12.1376
17.9654
12.2983
19.5558
11.7175
11.6677
12.1669
12.102
11.8262
19.5696
12.2975
11.6523
11.7092
12.0825
12.1564
8.73602
12.1685
8.99824
11.7137
8.6573
12.1606
8.92992
8.46333
8.77389
8.79729
8.47585
8.46309
8.78253
8.79782
8.88955
9.28213
9.26103
8.91364
8.89805
9.28267
9.26805
12.3172
9.41263
12.7584
9.03069
12.2875
9.36473
12.7162
20.1466
12.9357
22.1704
12.3205
12.2491
12.764
12.6736
12.4592
22.1975
12.9352
12.2279
12.3092
12.6462
12.7491
9.0969
12.7638
9.41444
12.3125
9.03325
12.7483
9.36624
8.91302
9.26072
9.28205
8.89746
8.91359
9.26738
9.28263
9.39204
9.82542
9.80773
9.41318
9.39859
9.82787
9.81284
12.9037
9.88939
13.3
9.48379
12.8561
9.86374
13.2336
22.9577
13.5376
25.8013
12.9093
12.8121
13.305
13.1839
13.0937
25.8567
13.5424
12.7825
12.8931
13.1462
13.2839
9.52804
13.303
9.89111
12.8908
9.48493
13.2775
9.86357
9.41215
9.80746
9.82537
9.3979
9.41314
9.81255
9.82799
9.901
10.4395
10.4687
9.9742
9.91256
10.4416
10.4786
13.4084
10.4423
13.0419
9.85215
13.3746
10.4695
12.9539
31.7717
13.2136
37.9197
13.3927
13.1819
13.0022
12.713
13.5304
37.9235
13.2137
13.1524
13.3559
12.6892
12.9624
9.8401
13.054
10.442
13.3876
9.85008
12.9979
10.4693
9.97171
10.4684
10.4394
9.91097
9.97433
10.4782
10.4416
10.5516
11.1333
11.1648
10.6063
10.5607
11.1321
11.171
12.9555
11.1573
12.2058
10.5532
12.8622
11.1693
12.0682
39.0519
12.4012
50.2266
12.9124
12.6113
12.1042
11.8696
13.1334
50.2408
12.4035
12.5899
12.8716
11.8578
12.0819
10.5275
12.2154
11.157
12.9079
10.553
12.1045
11.1691
10.6053
11.1645
11.1332
10.5604
10.6063
11.1708
11.132
11.2575
11.9163
11.957
11.3183
11.2635
11.9163
11.9607
12.1288
11.9546
12.1249
11.2621
11.9847
11.957
11.9791
52.5905
12.1964
79.6165
12.0183
11.812
11.9791
11.9857
12.3261
80.1484
12.2089
11.8014
11.9955
11.9869
11.9792
11.251
12.1235
11.9544
12.0184
11.262
11.9786
11.9572
11.3194
11.9568
11.9163
11.2633
11.3183
11.9607
11.9163
12.0641
12.8239
12.866
12.1298
12.0682
12.8245
12.8675
12.1742
12.8642
13.0521
12.0647
12.0304
12.8661
12.8938
80.5181
13.1251
83.6125
12.0305
12.0385
12.8924
12.8879
12.2595
87.5824
13.1353
12.0403
12.0308
12.8878
12.8835
12.0609
13.0576
12.8642
12.0303
12.0647
12.8841
12.8719
12.1303
12.866
12.8239
12.0681
12.1299
12.8732
12.8245
12.9923
13.8782
13.9434
13.0746
12.9909
13.8797
13.947
13.1127
13.9428
14.0734
12.9888
12.9549
13.9481
13.9808
86.0699
14.1225
85.1731
12.9547
12.9493
13.9816
13.9724
13.196
85.8257
14.123
12.9494
12.9495
13.9725
13.9786
12.9891
14.0734
13.9429
12.9496
12.997
13.9801
13.9481
13.0731
13.9433
13.8781
12.9975
13.0746
13.9471
13.8797
14.0893
15.1492
15.2593
14.1716
14.0933
15.1395
15.2319
14.1426
15.262
15.3551
14.0948
14.053
15.2342
15.3148
15.3618
15.6747
14.0534
14.0515
15.3161
15.3294
14.189
15.6747
15.3617
14.0516
14.0528
15.3296
15.3168
14.0887
15.3544
15.2618
14.053
14.0949
15.3163
15.2343
14.1701
15.2586
15.149
14.0934
14.1716
15.232
15.1395
15.4356
16.6482
16.8015
15.4882
15.4081
16.6485
16.7816
15.4446
16.8083
16.8392
15.4113
15.4058
16.7855
16.8323
15.6546
16.8463
16.8873
15.4051
15.4157
16.8351
16.8472
15.4484
16.8873
16.8463
15.4159
15.4058
16.8472
16.8356
15.4378
16.8392
16.808
15.4073
15.4114
16.833
16.7874
15.5037
16.8011
16.6484
15.4082
15.4882
16.7842
16.6486
17.0155
18.4793
18.6469
17.0719
16.993
18.4803
18.6471
17.0507
18.6514
18.6972
16.9987
17.0452
18.6526
18.6788
17.0974
18.7075
18.7333
17.0477
17.0587
18.6821
18.7151
17.0599
18.7333
18.7075
17.0587
17.0478
18.7151
18.6821
17.0203
18.6972
18.6514
17.0453
17.0003
18.6788
18.6526
17.0686
18.6469
18.4795
16.9951
17.0725
18.6471
18.4807
19.0389
20.7484
20.785
19.0025
19.0396
20.7532
20.7861
19.0899
20.7998
20.8463
19.0492
19.0751
20.7961
20.8346
19.1278
20.8561
20.8746
19.0838
19.113
20.8468
20.8689
19.1052
20.8746
20.8561
19.113
19.0838
20.8689
20.8468
19.0481
20.8463
20.7998
19.0751
19.0492
20.8346
20.7961
19.0015
20.785
20.7484
19.0396
19.0026
20.7861
20.7532
21.4442
23.664
23.7164
21.4105
21.4438
23.6701
23.7096
21.5039
23.7267
23.7405
21.4554
21.4963
23.7202
23.7364
21.5255
23.7415
23.743
21.5075
21.5207
23.7379
23.7396
21.5138
23.743
23.7415
21.5207
21.5075
23.7396
23.7379
21.4612
23.7405
23.7267
21.4963
21.4554
23.7364
23.7202
21.4037
23.7164
23.664
21.4438
21.4105
23.7096
23.6701
24.5781
27.0225
27.0317
24.5396
24.5723
27.0211
27.0287
24.5874
27.0344
27.0362
24.5765
24.584
27.0325
27.0349
24.5896
27.0375
27.0381
24.5851
24.5866
27.0361
27.0367
24.5882
27.0381
27.0375
24.5866
24.5851
27.0367
27.0361
24.5825
27.0362
27.0344
24.584
24.5765
27.0349
27.0325
24.5346
27.0317
27.0225
24.5723
24.5396
27.0287
27.0211
8.123
7.95438
8.16937
7.69543
7.70104
7.96894
7.97396
9.86173
8.3077
10.1124
7.70107
7.70022
7.97412
7.97426
9.93538
10.1527
10.1943
7.70032
7.70049
7.97445
7.97446
9.88358
10.1902
10.1377
7.70051
7.70049
7.97448
7.97445
8.2646
10.1086
8.3128
7.70046
7.7011
7.97435
7.97415
7.67655
8.18094
7.95418
7.7011
7.69598
7.97399
7.96981
8.20841
8.35586
8.3957
8.06311
8.06872
8.36183
8.36666
10.2057
8.50445
10.5037
8.06887
8.06925
8.36677
8.36737
10.2899
10.547
10.5913
8.06945
8.06944
8.36756
8.36748
10.232
10.5873
10.5318
8.06946
8.06941
8.3675
8.36745
8.34598
10.4999
8.50785
8.0693
8.06888
8.36735
8.36675
8.04872
8.39892
8.35577
8.06873
8.06397
8.36661
8.36267
8.48163
8.798
8.7905
8.46705
8.47149
8.80078
8.80258
10.6124
8.8544
10.9928
8.4715
8.47201
8.80263
8.80315
10.699
11.0232
11.0407
8.47216
8.47187
8.80324
8.80274
10.64
11.0356
11.0048
8.47189
8.47204
8.80276
8.80313
8.58195
10.9898
8.8658
8.47198
8.47148
8.80312
8.80263
8.46101
8.78981
8.79803
8.47143
8.46786
8.80253
8.8005
8.90548
9.28346
9.27484
8.91686
8.91871
9.28742
9.28621
11.1276
9.3138
11.4893
8.91886
8.91936
9.28641
9.28708
11.1619
11.5396
11.5538
8.91942
8.91887
9.28705
9.28632
11.1421
11.546
11.5144
8.91889
8.91932
9.28635
9.28696
8.97434
11.4887
9.32303
8.91934
8.91886
9.28707
9.28641
8.91388
9.27387
9.28344
8.91867
8.91688
9.28617
9.28736
9.40501
9.8295
9.81815
9.41624
9.41564
9.82783
9.82654
11.6074
9.83506
11.9434
9.41581
9.41645
9.82639
9.82677
11.6699
11.9944
11.984
9.41639
9.41566
9.82663
9.82618
11.6316
11.9664
11.963
9.41568
9.41631
9.82621
9.82658
9.44727
11.9412
9.84228
9.41645
9.41581
9.82679
9.82638
9.41437
9.81718
9.82945
9.4156
9.41628
9.82646
9.82752
9.91542
10.4405
10.4783
9.97352
9.97162
10.439
10.4334
13.4483
10.4681
12.852
9.97136
9.97146
10.4327
10.4318
13.2742
12.9132
12.6533
9.9713
9.97102
10.4318
10.4317
13.4438
12.6628
12.8621
9.97105
9.97125
10.4317
10.4318
9.86134
12.8555
10.4664
9.97148
9.97131
10.4318
10.4326
9.97541
10.4774
10.4403
9.97153
9.97277
10.4332
10.4364
10.5604
11.1311
11.1706
10.6035
10.5971
11.1291
11.1229
12.7623
11.169
12.0005
10.5962
10.5949
11.1203
11.1162
12.5562
12.0487
11.8411
10.5947
10.5946
11.1155
11.115
12.7736
11.8447
12.022
10.5946
10.5947
11.115
11.115
10.5512
12.0104
11.168
10.5948
10.5959
11.1154
11.1189
10.6049
11.17
11.1307
10.5969
10.6003
11.1207
11.1256
11.2633
11.9165
11.9614
11.3163
11.3109
11.9164
11.9112
11.9244
11.958
11.9763
11.3079
11.3027
11.9094
11.9021
11.7859
11.977
11.979
11.3019
11.3009
11.9012
11.8999
11.9444
11.9803
11.9769
11.301
11.3004
11.8999
11.8969
11.2611
11.9762
11.9579
11.3007
11.3054
11.897
11.907
11.3174
11.9613
11.9167
11.3076
11.3134
11.9103
11.9183
12.0686
12.8241
12.8677
12.1306
12.1247
12.8271
12.8219
12.0285
12.8664
12.8926
12.1237
12.1156
12.821
12.8137
12.0314
12.8915
12.8844
12.1145
12.1128
12.8118
12.8023
12.0288
12.8843
12.8868
12.1128
12.1111
12.8023
12.8116
12.0655
12.8876
12.8759
12.1116
12.1233
12.8133
12.8231
12.1303
12.8775
12.8244
12.1257
12.1344
12.8249
12.8277
12.9912
13.88
13.9508
13.0763
13.0736
13.8826
13.8787
12.9537
13.9513
13.981
13.0725
13.0652
13.8777
13.8743
12.9481
13.9813
13.97