/*--------------------------------*- C++ -*----------------------------------*\
| =========                 |                                                 |
| \\      /  F ield         | OpenFOAM: The Open Source CFD Toolbox           |
|  \\    /   O peration     | Version:  2206                                  |
|   \\  /    A nd           | Website:  www.openfoam.com                      |
|    \\/     M anipulation  |                                                 |
\*---------------------------------------------------------------------------*/
FoamFile
{
    version     2.0;
    format      ascii;
    arch        "LSB;label=32;scalar=64";
    class       volScalarField;
    location    "400";
    object      yPlus;
}
// * * * * * * * * * * * * * * * * * * * * * * * * * * * * * * * * * * * * * //

dimensions      [0 0 0 0 0 0 0];

internalField   uniform 0;

boundaryField
{
    movingWall
    {
        type            calculated;
        value           uniform 0;
    }
    front
    {
        type            calculated;
        value           uniform 0;
    }
    back
    {
        type            calculated;
        value           uniform 0;
    }
    sphere_1m
    {
        type            calculated;
        value           nonuniform List<scalar> 
336
(
504.723
506.832
503.742
147.777
1245.08
149.58
1255.14
151.184
1243.86
146.437
1256.13
120.998
3384.24
1526.11
117.952
3385.08
578.667
3311.13
120.188
3385.07
578.513
3311.11
118.577
3384.27
1526.23
578.228
3310.4
578.06
3310.37
989.543
771.371
987.908
772.479
771.426
990.677
3439.48
3385.83
3301.33
3442.05
3387.23
3303.42
3440.06
3386.16
3300.99
3441.45
3386.91
3303.75
572.256
1310.32
913.211
1049.15
1041.43
569.387
1270.35
918.227
1320.94
571.21
1269.75
911.859
1309.9
1049.62
570.04
1321.95
920.483
696.879
570.807
555.055
731.806
3500.42
2547.44
2717.68
1053.87
1140.83
2616.49
3516.26
511.905
1272.79
1176.22
559.156
545.659
724.445
3501.69
2551.75
2723.43
1066.47
1151.82
2621.97
3317.32
3517.62
3381.56
3079.64
2693.74
2681.87
3197.52
1268.47
571.253
554.947
730.324
3502.05
2548.98
2849.21
2718.63
1054.47
2616
1142.27
3316.13
3517.45
2477.3
2693.92
3079.78
2681.74
1178.77
559.079
546.084
726.225
2550.2
1076.99
2722.31
1065.65
2622.42
1150.03
3516.43
3380.85
3078.97
2693.24
2476.74
3078.91
2693.15
506.602
598.112
598.828
597.784
599.534
1796.92
3415.68
3074.96
937.593
1798.96
1529.3
3416.58
3075.91
941.083
1802.26
1529.19
3416.78
3075.89
941.655
1793.45
3415.56
3075.18
935.744
2633.16
1124.74
773.921
989.889
1272.48
1128.55
1121.53
1130.43
1272.78
1871.06
2477.27
1870.89
1187.36
1870.88
2476.89
1188.04
1496.08
1870.67
1495.92
694.492
454.83
1203.65
1042.69
1268.74
1044.79
1175.06
1322
1120.81
1190.04
671.206
517.961
458.356
700.038
456.402
1046.02
691.737
1325.31
1130.69
1196.41
1215.46
519.291
685.778
471.423
692.647
450.926
1042
1319.21
1119.35
1187.52
1202.76
1173.37
672.366
516.674
459.084
702.55
460.585
1216.08
1273.51
1049.16
1328.09
1133.71
1199.75
521.007
686.368
471.405
517.604
832.033
1260.45
2846.94
2901.27
2775.22
3329.37
3423.3
3384.11
1252.36
2562.46
2744.76
3380.54
3380.32
3196.72
3350.2
1071.88
3315.18
3406.89
3148.95
825.643
2902.97
2848.92
1261.59
2776.89
3424.16
3331.19
3385.45
3381.21
3351.37
1254.24
2564.8
2746.78
1079.03
3408.22
3150.11
1496.39
1187.61
2266.27
2537.16
2148.35
2150.72
2633.58
1732.88
3021.59
3169.54
3199.39
2962.46
695.112
517.618
832.146
1267.41
2904.62
2779.25
3331.26
3424.39
3385.99
1257.39
2565.95
2748.24
3381.4
3197.57
3352.15
1073.93
3149.35
3407.45
3381.24
1496.47
2266.28
2148.09
2536.87
2150.4
2633.17
1732.56
3021.42
3198.94
2962.11
3169.27
692.832
511.633
826.088
1254.04
3500.05
2846.64
2899.5
2772.62
3329.25
3423.21
3383.56
1248.46
2561.01
2742.98
3380.23
3196.77
3349.4
3407.63
3316.41
3149.7
2536.55
2147.88
2681.37
2150.28
1733.1
2265.69
3021.05
3168.94
3198.88
2961.9
1187.8
2536.29
2681.21
2147.67
2149.95
2632.75
1732.77
2265.7
3020.87
3168.69
3198.47
2961.59
)
;
    }
}


// ************************************************************************* //
