/*--------------------------------*- C++ -*----------------------------------*\
| =========                 |                                                 |
| \\      /  F ield         | OpenFOAM: The Open Source CFD Toolbox           |
|  \\    /   O peration     | Version:  2206                                  |
|   \\  /    A nd           | Website:  www.openfoam.com                      |
|    \\/     M anipulation  |                                                 |
\*---------------------------------------------------------------------------*/
FoamFile
{
    version     2.0;
    format      ascii;
    arch        "LSB;label=32;scalar=64";
    class       volScalarField;
    location    "600";
    object      p;
}
// * * * * * * * * * * * * * * * * * * * * * * * * * * * * * * * * * * * * * //

dimensions      [0 2 -2 0 0 0 0];

internalField   nonuniform List<scalar> 
187974
(
0.0630327
0.0569809
0.0726801
0.0831368
0.0833201
0.0774756
0.0598598
0.0615984
0.148379
0.0876224
0.117015
0.215856
0.214482
0.121341
0.0911393
0.143937
0.184053
0.225896
0.334089
0.462145
0.460057
0.33327
0.224187
0.180093
0.178399
0.264824
0.401001
0.568624
0.565079
0.397379
0.261293
0.174586
0.122377
0.217205
0.306497
0.422876
0.419994
0.303097
0.213675
0.119504
0.0449496
0.125812
0.140408
0.191145
0.189227
0.137923
0.122925
0.0431018
-0.0150514
0.0639915
0.0298096
0.0530571
0.0518682
0.0284138
0.0621991
-0.0151818
-0.0499571
0.0638512
0.0410917
0.103604
0.103697
0.041079
0.063753
-0.0477792
-0.0980421
0.0620627
0.070383
0.184302
0.185377
0.0715742
0.0635559
-0.0954995
-0.195983
-0.0325713
-0.0516727
0.0311259
0.0318519
-0.0508909
-0.0324475
-0.195468
-0.310789
-0.204712
-0.264041
-0.229098
-0.228812
-0.265055
-0.204806
-0.312601
-0.377467
-0.413036
-0.536706
-0.589788
-0.589625
-0.537377
-0.413778
-0.380439
-0.290698
-0.474871
-0.619868
-0.749651
-0.749661
-0.618869
-0.475094
-0.295731
-0.0462343
-0.261643
-0.286014
-0.369062
-0.370075
-0.285222
-0.260589
-0.0465903
0.217074
0.0554922
0.168436
0.152785
0.152557
0.167027
0.0523274
0.221172
0.384825
0.275938
0.454851
0.47201
0.471209
0.45435
0.2738
0.386556
0.435776
0.369153
0.553584
0.579324
0.579197
0.553162
0.368295
0.438556
0.41485
0.383227
0.542378
0.571983
0.571948
0.542866
0.383723
0.416434
0.344616
0.355558
0.478617
0.512773
0.512773
0.478694
0.355556
0.34542
0.235537
0.306418
0.395703
0.432125
0.432143
0.395831
0.306544
0.235861
-0.084867
-0.131725
-0.496486
-0.135348
-0.132749
-0.49486
-0.132387
-0.0862303
0.126953
0.141803
0.298467
0.469405
0.437954
0.281638
0.124977
0.123054
0.0690634
0.0664379
0.0834645
0.187739
0.593284
0.203088
0.0857027
0.0530315
0.109076
0.143217
0.212308
0.324247
0.412975
0.273105
0.175122
0.100222
0.117662
0.16768
0.233467
0.299901
0.326784
0.275915
0.207492
0.124839
0.0938788
0.155303
0.221836
0.268722
0.284288
0.265696
0.214194
0.131015
0.0467977
0.12214
0.204073
0.255074
0.270888
0.260243
0.20908
0.125562
-0.0090306
0.0884072
0.210309
0.315069
0.351395
0.300762
0.212846
0.123337
-0.0810306
0.0466968
0.200743
0.352995
0.414765
0.314286
0.202157
0.118493
-0.211241
-0.0483088
0.121592
0.277739
0.331266
0.233875
0.126072
0.0707279
-0.381468
-0.240403
-0.137088
-0.0522837
-0.0272973
-0.0768378
-0.106643
-0.0637875
-0.534386
-0.499892
-0.53517
-0.541974
-0.537387
-0.549472
-0.476957
-0.28063
-0.537935
-0.698111
-0.969906
-1.18473
-1.24147
-1.11903
-0.852517
-0.487709
-0.278289
-0.56672
-0.907104
-1.19468
-1.2756
-1.10364
-0.806419
-0.467026
0.12765
-0.0585525
-0.173259
-0.202097
-0.2051
-0.227028
-0.22578
-0.179847
0.424096
0.370494
0.438318
0.5427
0.567147
0.461222
0.28874
0.114828
0.526537
0.53946
0.652733
0.765958
0.791545
0.694201
0.50277
0.261156
0.501409
0.530087
0.63944
0.729457
0.749775
0.67851
0.523655
0.295929
0.434411
0.444298
0.55309
0.628866
0.646824
0.594763
0.478099
0.286836
0.311238
0.43951
0.565141
0.625618
0.625601
0.565186
0.439485
0.311242
0.143253
0.619162
0.810796
-0.502889
-0.474663
0.871142
0.630988
0.14278
0.185931
-0.117523
-0.0907469
2.38694
3.14674
0.761406
0.154044
0.173853
0.113002
0.052061
-0.13195
-1.30923
2.72915
0.154236
0.145932
0.155814
0.112075
0.184143
0.342416
0.773138
1.57814
0.631678
0.308873
0.158691
0.121385
0.23881
0.374812
0.631641
0.853392
0.581483
0.353506
0.215632
0.0887276
0.216449
0.297234
0.375915
0.426502
0.413115
0.316776
0.205929
0.0244714
0.144591
0.215702
0.18576
0.189932
0.278495
0.255288
0.151645
-0.0377773
0.107118
0.275111
0.350827
0.426757
0.430153
0.286405
0.149066
-0.098323
0.130091
0.440573
0.924378
1.43522
0.813373
0.385737
0.184473
-0.26512
0.0989749
0.493606
1.07379
1.44403
0.923603
0.409935
0.170103
-0.575143
-0.165947
0.109681
0.437362
0.596543
0.350405
0.0400672
-0.0526258
-0.968788
-0.673857
-0.656679
-0.401483
-0.159123
-0.508065
-0.697503
-0.527631
-1.14496
-1.30595
-1.95673
-2.43098
-2.53488
-2.36697
-1.83395
-1.09349
-0.692099
-1.32154
-2.37108
-3.58441
-4.1097
-3.31259
-2.12062
-1.08456
0.190269
-0.305033
-0.536094
-0.435242
-0.269585
-0.44213
-0.53084
-0.319184
0.775874
0.625045
0.990731
1.57996
1.85284
1.43871
0.835287
0.337289
0.930115
0.903975
1.28023
1.70827
1.85665
1.601
1.13714
0.567684
0.79274
0.814524
1.08307
1.34072
1.42239
1.28491
0.993366
0.532505
0.670052
0.650442
0.858073
1.02463
1.07512
0.994958
0.801811
0.45684
0.43575
0.582829
0.745417
0.856252
0.880242
0.812738
0.673141
0.435481
-0.657272
-0.189296
-2.95018
2.94171
3.33611
-3.02634
-0.171682
-0.671929
-0.542249
-0.134792
0.00160958
2.70642
-13.6685
0.134777
0.0426153
-0.545804
-0.195023
-0.295284
-0.487718
-1.13804
4.70902
-0.386313
-0.199334
-0.0663253
-0.0592832
0.037789
0.0182526
-1.07211
-4.40331
-0.594958
0.0929371
0.0420399
-0.00215847
0.110769
0.117686
0.0699369
-0.629649
0.151223
0.185725
0.174722
0.00104937
0.138529
0.170678
0.135025
-0.209989
0.412098
0.270793
0.22326
-0.0384373
0.0981036
0.120906
-0.397826
-1.35495
0.219869
0.228092
0.155354
-0.0830975
0.0762763
0.183031
-0.92839
-2.79048
0.2313
0.265907
0.129019
-0.13513
0.121905
0.491236
1.25658
14.3743
1.34493
0.456303
0.195828
-0.294527
0.195301
0.8671
2.79557
7.70805
2.40034
0.742387
0.27984
-0.723489
-0.0845587
0.613725
1.92567
3.07139
1.67683
0.487623
0.00731295
-1.40905
-0.95344
-0.411518
1.6791
9.75747
1.39463
-0.573083
-0.73925
-1.96006
-2.53537
-3.80811
-3.3656
-0.406264
-3.52404
-3.68265
-2.00833
-1.32082
-3.00121
-7.00551
-16.0763
-26.4412
-15.2531
-6.32236
-2.15658
0.286474
-0.511272
-0.864343
1.69509
7.69325
1.39821
-0.960343
-0.428186
1.2172
1.3074
2.74967
6.10375
8.46442
5.65876
2.37794
0.699304
1.3117
1.5239
2.53432
3.84328
4.42898
3.47157
2.16367
0.912667
1.06226
1.21028
1.70859
2.22105
2.39669
2.10922
1.53323
0.762776
0.831787
0.88455
1.17876
1.42567
1.50363
1.37679
1.09597
0.602686
0.51238
0.711752
0.911905
1.05279
1.08333
0.996127
0.817959
0.512321
-0.365854
0.364545
-1.57048
0.776758
0.942307
-1.68938
0.339162
-0.407209
-0.348397
-0.11709
0.843078
9.22646
3.62961
1.50234
0.0379403
-0.351798
-0.262064
-0.365735
-0.606238
-0.206312
0.85044
-1.16708
-0.330114
-0.0723534
-0.168096
-0.174804
-0.256501
-0.0821397
-0.0641582
-0.142034
-0.111171
-0.00674118
-0.120087
-0.0890079
-0.162663
-0.196626
0.791715
0.106048
0.00792012
0.0740287
-0.101984
-0.0479249
-0.085916
0.0464528
2.05814
0.471251
0.113638
0.0964561
-0.108992
-0.0460813
-0.0904017
-0.215694
2.67557
0.389311
0.0788367
0.0559219
-0.118328
-0.0141314
0.062753
-0.306188
0.842499
0.181113
0.0774418
0.0701544
-0.152449
0.0583813
0.250527
1.19738
-8.86691
0.947247
0.218905
0.154983
-0.312708
0.107496
0.553853
1.47012
4.44956
1.21906
0.462378
0.190559
-0.712369
-0.0779559
0.75254
2.34156
12.1428
1.83684
0.540027
-0.00320458
-1.4274
-0.952872
0.135175
4.48023
23.8285
3.82494
-0.186141
-0.757598
-2.09312
-3.07816
-5.05551
0.831204
60.7526
-0.636802
-4.81632
-2.26095
-1.43576
-3.91717
-12.2672
-65.9587
-59.0082
-10.4266
-2.42693
0.342753
-0.490788
-0.343614
18.7409
170.141
15.1553
-0.703991
-0.39444
1.33878
1.73167
4.33592
12.3037
19.1573
10.9929
3.72514
0.866915
1.39361
1.79969
3.14539
4.97229
5.75202
4.52708
2.67197
1.01563
1.12004
1.34951
1.95741
2.56963
2.78688
2.43295
1.74934
0.820221
0.865589
0.960942
1.28726
1.56673
1.65556
1.51117
1.19462
0.637659
0.510728
0.741585
0.949698
1.09724
1.12919
1.03703
0.847435
0.510631
0.0255302
0.379603
0.0593468
0.132493
-0.0218466
0.271781
0.410695
0.0402675
0.00344143
-0.145741
-0.144607
-0.0467539
-4.32717
-0.418586
-0.00482175
-0.0182693
-0.0877214
-0.225608
-0.917495
-4.69771
-2.55708
-1.20903
-0.139636
0.0439033
-0.143748
-0.157245
-0.365066
-1.03932
-2.0427
-0.795731
-0.22446
-0.00143575
-0.153661
-0.195399
-0.368584
-0.62614
-0.455254
-0.337154
-0.180478
-0.0212708
-0.146809
-0.19525
-0.32597
-0.376742
0.853694
-0.128413
-0.124355
-0.0267381
-0.133426
-0.182555
-0.341261
-0.605263
0.550848
-0.285685
-0.141278
-0.0204821
-0.116015
-0.0740806
-0.136588
-0.342964
0.016228
-0.196988
-0.0602312
0.0467389
-0.147539
0.00779805
0.126438
-0.464581
-4.50063
-0.510228
0.0475974
0.0806783
-0.281136
-0.0432211
0.000843589
-0.591418
-1.47289
-0.529585
-0.020141
0.0298905
-0.562592
-0.189083
0.176472
0.655863
1.4595
0.444162
0.0585127
-0.109676
-0.978485
-0.747944
-0.299064
1.37258
2.26758
0.926066
-0.439296
-0.579096
-1.28052
-1.88327
-2.98118
-3.19015
-1.68115
-3.31656
-2.8689
-1.3609
-0.768717
-2.06951
-4.69522
-10.4621
-15.1238
-9.99768
-4.34963
-1.35718
0.334645
-0.276433
-0.597212
0.784361
3.31206
0.575793
-0.661733
-0.307442
1.01733
1.14736
2.22712
4.51135
5.9739
4.19989
1.97035
0.543714
1.09842
1.34182
2.09426
2.99311
3.41081
2.74525
1.80951
0.711166
0.933228
1.09757
1.52896
1.94622
2.09015
1.85178
1.36745
0.648258
0.746099
0.826282
1.09043
1.31195
1.38071
1.26823
1.00989
0.53991
0.433314
0.64791
0.82521
0.94769
0.973012
0.894738
0.731766
0.433248
-0.129321
-0.0877374
-0.337526
-0.1098
-0.219957
-0.324849
-0.106795
-0.125079
-0.14125
-0.214196
-0.315275
-0.213048
-0.289558
-0.296121
-0.19693
-0.139473
-0.0992293
-0.149821
-0.224221
-0.269262
-0.074961
-0.207024
-0.144191
-0.0865771
-0.120488
-0.16682
-0.25007
-0.35802
-0.351536
-0.297576
-0.194668
-0.0880666
-0.12675
-0.177399
-0.276719
-0.388722
-0.423188
-0.324875
-0.204826
-0.0909707
-0.123791
-0.168613
-0.263084
-0.361916
-0.38023
-0.30037
-0.189395
-0.0842787
-0.104292
-0.136151
-0.198817
-0.252036
-0.245362
-0.214946
-0.142118
-0.0655349
-0.0899468
-0.0865067
-0.0819311
-0.0428358
-0.0125629
-0.0628898
-0.0624414
-0.0287563
-0.12407
-0.0827691
-0.0435102
-0.00167885
0.00887618
-0.0243312
-0.0321694
-0.0141742
-0.214583
-0.147588
-0.123068
-0.169432
-0.203983
-0.133502
-0.0808977
-0.0420159
-0.360837
-0.258155
-0.153851
-0.0232964
0.0252334
-0.0861914
-0.162796
-0.117379
-0.530946
-0.507058
-0.514292
-0.42824
-0.395205
-0.495526
-0.506477
-0.315848
-0.562114
-0.783674
-1.15531
-1.46233
-1.54141
-1.36282
-1.00303
-0.560806
-0.238635
-0.587381
-1.03995
-1.42588
-1.53782
-1.29521
-0.914399
-0.518527
0.288734
0.0930908
0.0451643
0.111942
0.136331
0.0280309
-0.0813467
-0.106357
0.632422
0.624021
0.818003
1.05587
1.11417
0.905647
0.579248
0.263473
0.719738
0.79003
1.01
1.20389
1.24506
1.08546
0.777597
0.415895
0.658426
0.717684
0.890438
1.02988
1.05836
0.952675
0.723731
0.413065
0.548574
0.583623
0.733742
0.84212
0.86699
0.794531
0.634147
0.384255
0.309338
0.435095
0.558357
0.617366
0.617406
0.558508
0.435405
0.309558
0.0109796
0.0482986
0.0335286
0.0628616
0.0468841
0.039893
0.0465016
0.00844038
-0.0109942
0.0148282
0.0314476
0.0959248
0.0861935
0.029565
0.0148541
-0.0191886
-0.0619626
-0.0412803
-0.0603261
-0.040646
-0.0494987
-0.0673288
-0.047292
-0.0674776
-0.101425
-0.0959553
-0.141146
-0.157652
-0.162142
-0.149101
-0.0996866
-0.101928
-0.111086
-0.120268
-0.18981
-0.21892
-0.220573
-0.190838
-0.125164
-0.11545
-0.107763
-0.117783
-0.183409
-0.207775
-0.207861
-0.182505
-0.119845
-0.109142
-0.0877092
-0.0815232
-0.122913
-0.121217
-0.122213
-0.123703
-0.0843673
-0.0905408
-0.0817737
-0.0547452
-0.0776744
-0.0582028
-0.0610408
-0.0808461
-0.0580565
-0.0838008
-0.102002
-0.0649554
-0.0966733
-0.0906799
-0.0933068
-0.100506
-0.069572
-0.106704
-0.139028
-0.0936047
-0.118
-0.104818
-0.107235
-0.121874
-0.0982972
-0.1438
-0.192482
-0.176483
-0.197312
-0.187652
-0.189612
-0.199562
-0.180608
-0.195211
-0.220275
-0.302329
-0.360658
-0.415322
-0.417228
-0.363309
-0.305812
-0.221922
-0.131934
-0.321228
-0.381601
-0.488219
-0.489772
-0.383936
-0.324844
-0.133226
0.0799417
-0.128927
-0.0949215
-0.164707
-0.165687
-0.0963991
-0.131443
0.0786773
0.297578
0.130211
0.274071
0.262773
0.262263
0.274036
0.129392
0.297758
0.425481
0.312557
0.503543
0.519751
0.519512
0.504321
0.312915
0.428751
0.454287
0.384815
0.572813
0.596944
0.596861
0.573592
0.385329
0.456033
0.422549
0.389941
0.55069
0.579686
0.579767
0.552036
0.391625
0.425549
0.347386
0.357177
0.479878
0.513361
0.513297
0.480181
0.357782
0.348255
0.236534
0.306467
0.395064
0.431049
0.431078
0.395251
0.306636
0.236924
0.323364
0.216361
0.355159
0.151468
0.328028
0.143689
0.310353
0.657418
0.371417
0.609707
0.31791
0.184278
0.31536
0.801897
1.59779
0.656014
0.938329
-0.0971111
-2.0457
0.763009
1.38496
0.758361
0.932228
0.649078
-2.09065
-0.0909075
1.54444
0.755116
0.334984
0.592987
0.365863
0.197919
0.294181
0.667723
0.298502
0.181285
0.344442
0.214603
0.310673
0.143948
0.298828
0.135807
0.362543
0.212514
0.326089
0.160422
0.321248
0.109574
0.311017
0.59416
0.314851
0.450187
0.325198
0.704866
0.299148
0.657595
0.860315
0.432833
0.516526
0.933856
1.79405
0.64277
1.31042
0.62705
0.513047
0.436131
1.67027
0.837984
1.30188
0.723002
0.370903
0.449631
0.316087
0.722306
0.311094
0.664479
0.295847
0.23703
0.324379
0.212969
0.309932
0.153329
0.305638
0.124449
0.316647
0.153175
0.261288
0.13258
0.302134
0.067238
0.281454
0.410413
0.224566
0.290416
0.276041
0.59508
0.234464
0.627803
0.428875
0.211008
0.218686
0.583682
1.1645
0.510172
0.98243
0.382221
0.217575
0.216868
1.16507
0.638469
0.9824
0.498715
0.300714
0.294497
0.227272
0.623435
0.278009
0.583967
0.21233
0.21793
0.262865
0.153132
0.296473
0.134714
0.25431
0.0632451
0.253739
0.106153
0.263571
0.0541439
0.253111
0.0244598
0.231231
0.275947
0.241209
0.354131
0.209634
0.610597
0.185068
0.638646
0.190433
0.266834
0.311534
0.491706
1.038
0.462339
1.21743
0.1899
0.314665
0.26834
1.01794
0.462101
1.22876
0.444346
0.218274
0.356824
0.243752
0.569816
0.192122
0.630136
0.172145
0.144586
0.264938
0.103371
0.23934
0.0477188
0.219632
0.000420624
0.28333
0.106762
0.351993
0.0258714
0.230492
0.084201
0.360716
0.426705
0.394946
0.705308
0.193423
0.688042
0.410618
0.662714
0.420965
0.774626
1.28211
0.442604
1.45691
-0.00630662
8.60595
0.35479
1.29621
0.784909
1.4898
0.417844
9.10563
-0.0243241
0.279714
0.713639
0.399545
0.680278
0.183944
0.645486
0.396012
0.110336
0.35581
0.108608
0.227021
0.0255152
0.34035
0.0776158
0.380974
0.0931065
0.417902
0.115636
0.443904
0.15608
0.746604
0.80246
0.49689
0.930465
0.472711
1.22593
0.846815
2.25957
1.42927
1.08896
1.5063
1.20371
-2.20208
2.63559
7.02483
0.936047
1.50941
1.0957
-2.21375
1.23238
7.04
2.64334
0.447541
0.937404
0.502199
1.24657
0.464491
2.26167
0.835801
0.131957
0.421198
0.0922703
0.434514
0.115744
0.736857
0.148781
0.407914
-0.0987657
0.168988
0.174244
0.763407
-0.0455973
0.551924
0.918353
0.237026
0.52349
0.876098
2.27185
0.645716
1.55746
1.44226
0.618252
0.814502
2.61687
5.91233
1.66703
2.3933
1.07944
0.813866
0.616183
5.92606
2.61749
2.37325
1.62028
0.497821
0.520739
0.232577
2.27042
0.865296
1.51228
0.618353
0.0999559
0.164267
-0.10781
0.749437
0.167183
0.524156
-0.0609683
0.0448432
-0.524954
-0.451053
-0.129765
0.477198
-0.684946
-0.361701
0.356081
-0.412838
-0.240568
0.564374
1.4006
-0.295821
1.09632
0.597616
-0.156625
0.0329245
1.49518
2.24528
1.25801
6.07506
0.433581
0.0327577
-0.16269
2.22022
1.43514
5.91126
1.24074
0.103884
-0.246392
-0.419833
1.3461
0.534456
1.08281
-0.332152
-0.171802
-0.459163
-0.533553
0.444992
-0.142259
-0.392584
-0.699536
-0.689355
-1.09776
-1.48343
-0.922787
-0.54174
-1.85886
-2.84259
-0.500763
-1.55201
-1.73837
-0.462041
1.18242
-2.96333
-2.85963
-0.158121
-1.7385
-1.70609
1.40986
6.60208
-2.74851
-0.393054
-0.408338
-1.70792
-1.74414
6.47685
1.39093
-0.394334
-2.76575
-0.663596
-1.7448
-1.55983
1.16977
-0.50276
-2.87606
-2.9861
-0.681
-1.49355
-1.10425
-0.56961
-0.935931
-2.86136
-1.87047
-1.82507
-1.31002
-2.15668
-2.24955
-3.31495
-2.58333
-5.53216
-2.35972
-2.39511
-3.3077
-3.48193
-3.48492
-6.12053
-13.3672
-2.53108
-3.56875
-4.05491
-3.40573
-1.06647
-14.1744
-21.7051
-2.43702
-4.05677
-3.57751
-1.0694
-3.4228
-21.7149
-14.2251
-1.96538
-3.31694
-2.40013
-3.49849
-3.51075
-13.4154
-6.14224
-1.3122
-2.16277
-1.31606
-3.33895
-2.26014
-5.5538
-2.59011
-2.11806
-0.550186
-0.968666
-2.52332
-5.40108
-0.967929
-1.60104
-3.30087
-1.04137
-1.24508
-5.91188
-13.4689
-1.66642
-0.118314
-4.10351
-1.28932
-1.2822
-14.2933
-22.3225
0.122826
4.4326
-3.59716
-1.28887
-1.26078
-22.3352
-14.3529
4.43399
0.0879403
-2.37391
-1.2146
-1.0363
-13.5253
-5.93572
-0.0781549
-1.62814
-1.32145
-0.966632
-0.538638
-5.41359
-2.53168
-1.62613
-0.967712
-0.533645
0.442478
0.596406
-0.434877
-0.922433
0.905789
1.94853
-0.479032
0.71365
1.12777
-0.872594
0.789937
2.24944
4.88735
-0.262482
1.25922
1.53836
1.14938
5.70276
5.34609
7.53013
-0.402668
1.54317
1.25755
5.70027
1.11562
7.53601
5.34317
-0.526004
1.13086
0.714952
0.835839
-0.8455
4.8796
2.2401
-0.304996
0.588109
0.438313
-0.933878
-0.440515
1.94475
0.891389
0.839348
0.825522
1.08291
1.15938
2.10662
1.38017
2.19196
1.43459
1.22811
1.59502
2.42468
4.7885
2.34468
3.46472
1.85004
1.70318
1.87881
5.19102
7.0576
3.61301
4.47178
1.57301
1.8721
1.68204
7.06274
5.19051
4.47117
3.62518
0.990607
1.58433
1.22616
4.7818
2.39241
3.47864
2.34822
0.623727
1.07874
0.833496
2.09367
1.15902
2.20544
1.37211
1.13759
0.820902
1.0105
1.38173
1.88162
1.17481
1.49825
1.61124
1.1147
1.32912
2.17908
2.92659
1.68806
2.13664
1.85867
1.39717
1.50193
3.20491
3.69325
2.26879
2.45539
1.69822
1.50017
1.3945
3.68813
3.207
2.45501
2.26563
1.28024
1.33422
1.11945
2.95466
2.19786
2.1366
1.69862
0.899421
1.01302
0.821066
1.89081
1.37433
1.51019
1.16996
0.990275
0.670778
0.822673
1.11735
1.38564
0.883291
1.10231
1.28342
0.889796
1.0374
1.5507
1.91446
1.20248
1.40755
1.42295
1.07097
1.12516
2.01559
2.16475
1.46279
1.54519
1.33781
1.12512
1.07054
2.16463
2.01428
1.54517
1.46273
1.08995
1.03725
0.890371
1.91496
1.55653
1.40754
1.20279
0.81557
0.822454
0.671722
1.39081
1.11845
1.1015
0.881677
0.801811
0.571284
0.694241
0.839677
1.03054
0.664216
0.792729
0.994821
0.783331
0.861157
1.10981
1.2918
0.909888
0.994719
1.07514
0.909389
0.937242
1.33747
1.40853
1.05845
1.08962
1.02451
0.937252
0.909487
1.40853
1.33749
1.08962
1.05851
0.858887
0.861232
0.783993
1.29185
1.11007
0.994775
0.910048
0.653546
0.69364
0.571091
1.03033
0.841078
0.792737
0.665006
0.148326
0.0797701
0.168709
-0.152066
-0.120969
-0.0694146
-0.0107549
-0.541761
0.0684296
0.00140813
-0.265029
-0.274088
-0.152827
-0.0925553
-4.5689
-0.588722
-1.56929
-0.13864
-0.746348
-0.340187
-0.0154383
-1.29779
-1.24441
-0.535178
-0.857049
-0.193778
0.022775
-0.226186
-0.0203591
-0.0429922
0.044702
-0.271732
-0.227293
-0.0368254
-0.116461
0.00775033
0.142567
0.0725682
-0.101853
-0.150569
0.00715997
-0.0661719
0.211351
0.124456
0.270553
-0.0442231
0.0358991
-0.017044
0.132168
0.140093
0.187887
0.371994
-0.106983
0.0401788
0.00104176
0.398374
-0.405727
0.174502
0.121002
-0.209993
0.249895
0.148647
1.10551
-0.235285
0.0841151
0.343498
0.286983
-0.114209
1.09135
0.19609
0.0950353
0.43506
0.191008
0.084347
-0.0740149
0.398445
0.0219179
0.110388
0.261406
0.126297
0.0450132
-0.0384902
0.131939
-0.0105245
0.275576
0.10456
0.248605
-0.00827239
0.146781
-0.030496
0.134432
0.313704
0.131867
0.301748
0.0197878
0.487804
0.0326519
0.580612
-0.201793
-0.287237
-1.10728
0.229342
1.43017
0.241849
2.27378
0.229092
-1.18726
-0.233921
1.40535
0.267746
2.22027
0.281812
0.187017
0.272266
0.126317
0.477765
0.0387096
0.567354
0.0458057
0.146133
0.240896
0.0945128
0.146503
0.000291291
0.131993
-0.0283277
0.236542
0.0732193
0.246137
-0.0366495
0.112486
-0.0472645
0.0619443
0.264691
0.152399
0.2112
0.0243852
0.542701
0.0428676
0.377711
-1.28691
-0.837982
-2.41695
0.186673
2.47007
0.168853
2.71081
-0.411486
-2.47329
-0.847708
2.41915
0.226104
2.71628
0.153558
0.110426
0.205785
0.139337
0.535255
0.0349412
0.380574
0.0322423
0.0790513
0.238038
0.0627712
0.109733
-0.0336431
0.0456168
-0.0560271
0.258187
0.100807
0.463463
-0.0364853
0.069895
0.0120922
0.133783
0.241098
0.623369
2.11492
0.0738148
0.305974
0.12979
0.481245
-2.79611
2.51811
-4.53144
0.265293
2.70214
1.80089
1.28108
-0.941522
-4.18927
2.61962
2.76839
0.208854
2.10395
1.53165
0.18567
2.1635
0.625213
0.308314
0.051069
0.335296
0.0443292
0.0790429
0.455381
0.0960938
0.0465602
-0.0486242
0.0700413
-0.0163941
0.464525
0.166468
0.742284
0.0540418
0.259282
0.111562
0.579468
1.33204
0.835155
2.35145
0.19514
0.796144
0.616027
1.39802
14.1828
2.78084
9.20234
0.654565
-13.0203
1.47271
3.35312
1.27699
9.23742
2.79383
-12.9686
0.46113
3.36307
1.37751
0.483934
2.35939
0.824261
0.61972
0.10705
1.30009
0.545001
0.117473
0.731453
0.157926
0.181349
0.0253648
0.515637
0.0837878
0.756682
-0.00773571
0.588963
0.146993
0.620861
-0.00551735
0.745639
2.39904
0.693772
1.89406
0.666498
1.59357
0.875456
2.63539
7.69213
2.09941
3.1558
1.71978
4.13413
3.03616
10.6111
2.80237
3.15268
2.05206
4.20015
1.62869
10.5843
2.77726
0.85396
1.84898
0.663496
1.49229
0.594629
2.36445
0.775054
0.18534
0.560352
-0.0232736
0.55622
0.119366
0.657968
-0.0373356
0.520758
-0.682902
-0.355204
-0.0583605
0.72995
-0.667391
0.0849276
1.73397
-0.239831
1.31145
0.873978
2.80288
0.310106
4.14022
3.08821
1.50062
8.35584
3.25195
11.8976
4.59287
25.002
1.86689
8.28843
1.45389
11.9205
2.97852
25.3987
4.32995
0.583267
1.26425
-0.272962
2.52706
0.770934
3.89328
0.222679
-0.101276
-0.385023
-0.700452
0.639479
-0.091673
0.00193371
-0.700935
-0.54466
-2.03407
-3.10966
-0.966585
-0.134051
-2.4254
-3.9203
1.44298
-3.19115
-2.83455
0.0992378
4.21595
-4.06517
0.839034
9.80098
-2.67122
0.140924
4.6866
26.874
2.2546
69.3593
1.6377
0.142615
-2.69442
27.3698
4.4456
69.4099
2.1876
-0.440104
-2.85666
-3.21319
3.98704
0.0178279
0.768629
-4.11618
-0.97066
-3.13064
-2.04766
-0.212554
-0.999195
-3.97075
-2.45386
-3.66167
-3.02502
-6.40138
-3.11871
-4.87037
-4.00323
-10.7458
-3.5043
-7.21192
-15.1033
-5.18682
-0.675955
-12.675
-57.1359
-0.4036
-15.9311
-25.6204
0.690981
68.7939
-63.6517
14.6927
-3.38547
-25.6266
-15.9955
69.1506
0.628449
16.2742
-63.9261
-3.82936
-15.162
-7.23864
-0.744196
-5.23593
-57.4008
-12.7173
-2.54783
-6.42286
-3.03006
-4.91835
-3.14574
-10.7835
-4.02353
-6.30837
-1.14417
-1.74548
-3.98717
-10.6896
-1.40018
-2.09568
-15.1867
-1.78492
0.284781
-12.6457
-59.8419
-2.00171
12.8011
-26.4304
0.584727
6.4242
-67.273
-574.894
16.477
198.181
-16.1508
6.42376
0.64312
-572.144
-67.5904
198.241
16.5424
-7.02326
0.402072
-1.75181
-60.1346
-12.6867
12.8538
-2.00726
-3.00616
-1.74167
-1.14022
-10.7262
-4.00631
-2.10524
-1.40992
-0.945199
1.0259
2.22751
-0.521085
-0.723362
1.39911
3.66907
1.32315
2.5612
5.81068
-0.366141
15.3493
4.34048
12.4306
7.69981
6.38356
9.29142
19.0465
167.019
14.1192
23.4789
1.7365
9.30491
6.37877
167.064
19.1109
23.4795
14.1513
-0.878011
5.86948
2.57038
15.4041
-0.365229
12.4633
4.3496
-0.510796
2.23456
1.01329
-0.727187
-0.530264
3.67579
1.39146
2.43316
1.53263
2.33122
1.7402
3.74568
1.83652
3.11899
5.61328
2.47718
3.71099
4.35887
11.1844
3.3432
5.47478
8.44618
3.87553
4.81212
12.5172
19.5187
5.72779
7.01476
6.09327
4.81228
3.88755
19.5196
12.5458
7.01504
5.73181
2.70246
3.72768
2.46266
11.2137
4.36669
5.47966
3.34699
1.32374
2.32081
1.52169
3.75175
1.73802
3.12258
1.83433
2.17806
1.26692
1.68314
1.81248
2.6949
1.43424
1.95331
3.48229
1.88518
2.38745
3.17996
4.57527
2.21268
2.8238
4.42894
2.52866
2.75706
5.03174
5.82259
3.00569
3.2972
3.8365
2.7572
2.5309
5.82263
5.03153
3.29717
3.00549
2.52966
2.38818
1.8854
4.57303
3.17624
2.8234
2.21199
1.52875
1.68395
1.26244
2.69134
1.81051
1.9529
1.43421
1.52946
0.939478
1.1847
1.35389
1.75687
1.02542
1.30231
2.10887
1.28654
1.51284
1.9675
2.44583
1.41923
1.68028
2.39663
1.57253
1.66424
2.5844
2.80302
1.74953
1.85632
2.22199
1.66425
1.57265
2.80299
2.58429
1.85632
1.74955
1.71007
1.51288
1.28675
2.4456
1.96717
1.68027
1.41921
1.20705
1.18357
0.941265
1.7567
1.35388
1.30223
1.02538
1.09662
0.724804
0.880362
0.962639
1.19713
0.762987
0.921306
1.37673
1.00367
1.10642
1.29052
1.5152
1.05505
1.16201
1.50362
1.17537
1.21271
1.57124
1.6604
1.2367
1.27606
1.42575
1.21271
1.17541
1.6604
1.57126
1.27608
1.23674
1.17881
1.10645
1.00375
1.51521
1.29053
1.16207
1.05511
0.886054
0.880309
0.724789
1.19709
0.962518
0.921349
0.763038
-0.103103
-0.107913
-0.017012
-0.0936023
-0.103896
-0.133654
-0.14259
-0.1793
-0.190623
0.0122483
-0.234766
-0.592798
-0.313313
-0.421683
-0.0937424
-0.259091
0.593706
-0.580143
-2.3894
-0.603666
-0.375431
-0.0514055
0.589288
-0.202789
-2.2806
-0.695681
-1.1696
-0.719393
-0.24623
-0.00394315
-0.189879
-0.620462
-0.244945
-0.388721
-0.310066
-0.173528
-0.0299174
-0.108824
-0.128005
-0.11591
-0.142619
-0.140246
0.0174525
-0.0541827
0.10751
-0.138927
-0.133904
-0.138216
-0.106023
0.112312
-0.0914075
0.427272
-0.307561
-0.430813
-0.297595
-0.398311
0.719729
0.0127691
1.62717
-0.709993
-2.11345
-1.02726
-2.87263
-0.130982
1.62821
0.0341348
-1.18771
-0.70414
-2.80577
-0.880956
-0.159388
0.411119
-0.0845078
-0.488713
-0.320575
-0.330973
-0.284056
-0.0880314
0.10119
-0.053112
-0.143123
-0.141932
-0.104077
-0.134003
0.11831
-0.0449718
0.102645
-0.144427
-0.0918401
-0.13786
-0.0741608
0.482847
-0.0913371
0.459142
-0.274082
-0.320239
-0.277749
-0.100314
2.05635
-0.115362
2.61361
-0.73144
-0.986677
-0.701114
-1.0855
0.0705484
2.63955
-0.085678
-0.954621
-0.76614
-1.0554
-0.765707
-0.0759222
0.461539
-0.084082
-0.216982
-0.264668
-0.117738
-0.278904
-0.0451682
0.0954992
-0.0474902
-0.0799928
-0.138193
-0.0749636
-0.135333
0.0879267
-0.0283958
0.0875849
-0.143866
-0.0902982
-0.112533
-0.0978426
0.378275
0.00417989
0.169858
-0.286855
-0.271508
-0.247435
-0.26418
2.61164
-0.356229
1.31964
-0.836863
-1.38411
-0.485021
0.352947
-0.186869
1.55589
-0.374511
-1.38081
-0.867351
0.312912
-0.565385
-0.0861135
0.201942
-0.0149022
-0.259487
-0.287588
-0.259319
-0.265767
-0.0489187
0.0637697
-0.0425522
-0.0839624
-0.140924
-0.101577
-0.12002
0.110036
0.0243112
0.225181
-0.0872195
-0.0636107
-0.00747548
0.160448
0.15221
0.268639
0.606809
-0.177222
-0.0906363
0.147308
-0.611221
0.480962
0.784027
4.0375
-0.320376
0.646945
-1.89094
-6.26522
-0.36205
5.36316
0.59214
0.578717
-0.44556
-6.48964
-1.95324
0.0315324
0.42168
0.168753
-0.1133
-0.213719
-0.650327
0.0494518
-0.0320591
0.146994
-0.00923437
-0.0816353
-0.102666
0.0910722
-0.0412456
0.295202
0.0824133
0.495368
0.0276318
0.136562
-0.0120514
0.087521
1.16292
0.517648
1.17719
0.143852
-0.373094
0.0535598
-0.36172
-8.60064
1.28223
3.70466
-0.20552
-0.280468
-0.504413
-1.62915
0.938058
3.60545
1.17108
-0.519155
-0.427137
-1.65854
-0.632622
0.166805
1.09087
0.451411
-0.541557
0.0508102
-0.452855
-0.0327399
0.0237219
0.433635
0.0502594
0.0519907
-0.0100412
0.024316
-0.0459649
0.524883
-0.0348728
0.636152
-0.01132
0.0877666
-0.121162
0.190236
1.31789
0.736531
1.9116
0.0576906
-0.378408
0.228093
0.365351
4.48723
2.19428
11.7358
-0.524599
-1.74421
0.409341
0.980557
1.35205
11.423
2.07659
-1.78103
-0.669413
0.962999
-0.0339838
0.486407
1.7193
0.633455
-0.501517
-0.0309048
0.186654
0.120334
0.0756588
0.544429
-0.0709072
0.0126078
-0.0440379
0.0995205
-0.15859
0.636931
-0.657925
0.120603
-0.145678
0.212203
-0.569713
-0.146735
2.05094
0.349914
4.0234
0.268035
0.587841
-0.00580289
1.5292
12.1421
4.44904
20.7652
0.818747
2.26419
1.66423
2.69271
2.20937
21.301
4.1892
2.22376
0.420889
2.61029
1.33748
0.64265
3.78269
0.248109
0.469604
0.154386
1.20364
-0.116827
-0.115756
0.0272572
-0.695151
0.116446
-0.183292
-0.233797
-0.605111
-0.0988143
-2.40076
-3.83267
-0.793759
-0.338639
-1.745
-2.66647
4.04946
-3.96171
0.920987
-0.209534
1.39953
-2.73703
-2.75449
22.9922
2.32546
59.9398
1.53854
2.34428
-2.64278
-0.267135
4.24337
59.734
2.2278
2.26014
1.22079
-0.293094
-2.70306
0.0406056
0.819616
-4.02366
1.09178
-0.312104
-2.86219
-2.79645
-0.987644
-3.88906
-2.42926
-0.423189
-0.830063
-2.72845
-1.77922
-4.76126
-3.93809
-10.4098
-2.18232
-3.13201
-2.57777
-5.33272
-0.534443
-12.2765
-56.177
-3.26238
-3.28534
-5.80455
-11.1993
60.8002
-62.625
-311.715
-3.20719
-1.07943
-11.734
-17.3397
0.735055
-310.533
-62.8782
-1.10212
-3.30246
-17.3449
-11.8069
-5.11647
-56.4694
-12.3365
-3.38711
-3.31777
-11.2784
-5.84208
-3.1036
-10.4623
-3.95385
-3.1926
-2.21044
-5.35974
-2.5947
-10.3775
-1.35287
-2.04451
-2.54481
-5.16203
-0.895712
-1.38549
-58.6936
-1.94941
12.6266
-5.66791
-11.2242
-1.31074
0.156514
16.2585
210.06
-11.7626
-17.5598
0.299008
3.38678
-66.2483
210.125
16.3229
-17.5624
-11.816
3.39931
0.305694
-12.3234
12.6773
-1.96187
-11.2692
-5.70209
0.159692
-1.31666
-3.93053
-2.05765
-1.36718
-5.18583
-2.55571
-1.34579
-0.907074
-0.695307
1.39631
3.65152
-0.329173
-0.722089
1.00784
2.09039
15.1011
4.31604
12.1664
-0.577982
0.959918
2.36999
5.15815
170.099
13.8091
22.9707
1.08347
4.41598
5.51975
7.69673
18.8104
22.9725
13.8138
4.42857
1.0887
7.69915
5.53614
-0.349568
12.1682
4.31145
0.961474
-0.585371
5.17458
2.37028
-0.497373
3.6471
1.39464
-0.719986
-0.334907
2.08875
1.00826
3.72814
1.82453
3.10991
1.28732
2.22831
1.49918
2.21361
10.9915
3.33286
5.44556
2.51136
5.05838
2.34445
3.56478
19.1559
5.69671
6.97157
5.36014
7.14277
3.78727
4.43905
12.3054
6.97181
5.70063
7.14533
5.37002
4.43943
3.7611
4.33234
5.4504
3.33794
5.05977
2.50669
3.55369
2.34512
1.73161
3.11472
1.82614
2.23125
1.28533
2.21429
1.50373
2.66765
1.42872
1.94175
1.47433
2.08065
1.22928
1.64383
4.52349
2.19897
2.80477
2.41071
3.33403
1.84702
2.30578
5.75161
2.98514
3.27433
3.67785
4.14293
2.43947
2.64675
4.97519
3.27446
2.98624
4.14357
3.67279
2.64659
2.43991
3.14933
2.80605
2.20039
3.32931
2.41026
2.30577
1.84573
1.80077
1.9432
1.4292
2.08126
1.47388
1.64607
1.22892
1.74823
1.0233
1.29862
1.19033
1.51123
0.928571
1.16445
2.43207
1.41501
1.67465
1.68124
2.04793
1.2641
1.48561
2.7868
1.74354
1.84983
2.15245