/*--------------------------------*- C++ -*----------------------------------*\
| =========                 |                                                 |
| \\      /  F ield         | OpenFOAM: The Open Source CFD Toolbox           |
|  \\    /   O peration     | Version:  2206                                  |
|   \\  /    A nd           | Website:  www.openfoam.com                      |
|    \\/     M anipulation  |                                                 |
\*---------------------------------------------------------------------------*/
FoamFile
{
    version     2.0;
    format      ascii;
    arch        "LSB;label=32;scalar=64";
    class       volScalarField;
    location    "600";
    object      ReThetat;
}
// * * * * * * * * * * * * * * * * * * * * * * * * * * * * * * * * * * * * * //

dimensions      [0 0 0 0 0 0 0];

internalField   nonuniform List<scalar> 
187974
(
528.222
556.817
555.319
555.429
555.412
555.362
557.382
526.739
509.512
534.025
532.124
531.9
531.873
532.153
534.68
507.772
498.446
519.456
517.545
517.205
517.174
517.568
520.185
496.557
486.675
501.531
499.675
499.478
499.445
499.678
502.336
484.592
471.362
482.81
481.182
481.271
481.236
481.143
483.673
469.118
454.532
462.97
461.71
461.87
461.831
461.595
463.885
452.202
436.491
442.789
441.66
441.295
441.253
441.504
443.752
434.335
416.699
422.196
420.892
420.022
419.98
420.738
423.095
414.327
400.592
402.272
401.954
401.988
401.965
401.89
403.028
398.717
387.369
387.437
387.466
387.285
387.284
387.378
388.28
385.433
371.501
372.604
372.413
372.232
372.233
372.381
373.01
369.92
357.039
357.537
357.36
357.16
357.166
357.375
358.234
355.17
340.903
341.978
342.026
342.076
342.078
342.016
342.591
339.118
324.864
325.843
325.83
325.798
325.791
325.789
326.403
323.211
308.618
309.533
309.47
309.453
309.444
309.442
309.918
307.402
292.167
292.939
292.89
292.882
292.88
292.881
292.858
292.22
276.047
275.976
275.958
275.964
275.964
275.959
275.957
275.769
258.481
258.576
258.554
258.55
258.55
258.554
258.576
258.513
240.203
240.273
240.262
240.261
240.262
240.262
240.274
240.197
223.575
223.608
223.606
223.605
223.605
223.607
223.609
223.574
563.403
557.423
557.465
557.679
557.66
557.453
557.436
563.128
540.808
535.985
536.075
536.154
536.123
536.054
536.003
540.56
534.337
526.123
526.185
526.119
526.051
526.33
526.197
546.96
501.875
510.042
510.503
510.922
510.931
511.26
510.049
522.361
472.262
493.581
494.423
496.072
496.202
496.021
493.375
501.139
441.033
476.898
477.36
479.969
480.214
479.608
476.258
481.697
415.841
458.492
457.672
461.049
461.339
460.382
457.417
460.107
398.312
434.95
434.698
439.134
439.39
437.246
434.239
436.284
387.952
410.186
410.784
412.682
412.609
412.839
410.047
412.21
377.22
393.928
393.425
393.485
393.523
393.546
393.615
394.766
367.007
377.366
377.493
377.501
377.502
377.507
377.528
377.757
357.502
361.709
361.83
361.863
361.859
361.864
361.718
362.135
346.116
345.905
346.036
346.117
346.136
346.098
345.958
346.36
329.866
329.977
330.045
330.054
330.059
330.031
330.017
330.483
313.685
313.698
313.639
313.52
313.463
313.475
313.561
314.201
297.343
297.225
297.087
297.035
297.032
297.055
297.113
297.663
280.635
280.487
280.39
280.368
280.37
280.385
280.442
280.87
263.451
263.328
263.277
263.253
263.254
263.268
263.31
263.414
245.63
245.592
245.626
245.621
245.619
245.629
245.556
245.678
223.424
223.46
223.482
223.481
223.481
223.482
223.452
223.434
526.065
558.17
556.395
318.27
320.107
557.147
558.079
524.525
505.748
540.709
540.533
596.51
587.75
540.631
540.161
504.694
480.55
526.762
526.447
529.581
538.201
526.378
526.251
544.647
459.929
513.304
512.244
511.958
531.989
512.107
512.189
522.986
430.809
496.121
494.82
494.37
496.814
494.561
494.845
506.629
404.011
477.711
476.31
476.035
475.907
476.155
476.339
489.474
394.922
457.992
456.601
456.558
456.605
456.59
456.587
470.274
388.108
436.68
435.292
435.277
435.29
435.29
435.256
440.076
379.109
413.366
411.962
411.767
411.621
411.851
411.948
409.247
371.379
394.611
395.08
394.908
394.809
394.985
395.046
392.936
366.311
379.223
379.418
379.537
379.55
379.572
379.331
377.235
355.638
363.672
363.892
364.052
364.104
364.074
363.826
361.616
344.644
347.952
348.193
348.58
348.661
348.561
348.119
345.93
329.881
332.06
332.392
332.674
332.814
332.635
332.305
330.024
313.714
315.724
315.714
315.506
315.382
315.426
315.682
313.78
297.308
299.228
298.936
298.709
298.68
298.8
299.006
297.348
280.601
282.496
282.251
282.055
282.054
282.146
282.363
280.665
263.319
265.356
265.245
265.392
265.496
265.341
265.362
263.405
245.616
247.879
248.161
248.304
248.302
248.306
247.961
245.761
223.481
226.723
226.727
226.726
226.726
226.726
226.729
223.483
509.064
559.946
550.267
229.723
231.602
550.716
558.031
510.892
490.301
540.513
539.032
269.71
144.88
530.888
540.259
489.491
434.645
526.387
524.912
214.816
135.337
525.457
526.565
543.66
430.744
511.777
512.181
235.084
119.926
550.742
512.702
520.145
419.752
494.526
494.11
251.206
117.154
539.745
495.128
501.725
407.751
475.957
475.02
442.618
155.825
479.87
476.049
482.019
399.994
456.112
455.274
449.934
156.631
452.31
456.024
456.55
391.918
434.693
434.466
433.367
110.588
432.507
434.828
434.315
383.466
411.264
413.468
409.933
87.4375
412.262
413.286
410.235
374.607
394.578
395.804
392.089
243.795
393.332
395.641
393.554
365.433
378.951
380.153
378.139
385.818
378.542
380.145
377.482
355.144
363.472
364.571
364.943
452.679
364.988
364.542
361.589
344.102
348.139
349.558
349.895
348.594
349.969
349.425
346.069
329.979
332.378
334.314
336.536
337.515
336.394
334.09
330.225
313.721
315.841
316.952
316.59
315.2
316.604
316.899
313.842
297.287
299.269
300.163
298.943
298.455
299.049
299.949
297.373
280.63
282.735
282.398
282.262
282.38
282.084
282.32
280.755
263.603
265.842
265.627
265.761
265.741
265.772
265.609
263.653
245.876
248.269
248.304
248.291
248.286
248.293
248.308
245.947
223.506
226.725
226.726
226.725
226.724
226.725
226.727
223.505
511.239
558.423
552.033
193.15
196.764
552.081
562.143
507.18
491.428
541.039
538.621
367.241
186.933
530.718
538.976
491.717
429.765
525.799
524.613
311.799
187.406
519.487
525.671
537.055
426.629
512.106
511.434
490.606
218.897
502.933
511.702
513.727
416.161
494.794
494.01
468.109
246.226
485.536
494.29
495.971
406.273
476.246
475.206
447.596
240.609
465.966
475.52
477.253
399.009
456.355
455.322
426.705
193.022
445.787
455.608
456.99
391.336
434.846
434.162
406.753
135.89
425.411
434.36
434.925
383.031
411.323
412.478
397.901
106.16
403.285
412.551
410.791
374.27
394.612
395.145
379.674
91.3369
386.662
395.27
393.861
365.194
378.968
379.419
363.266
89.1533
370.551
379.537
377.737
355.491
363.477
363.944
352.277
69.1296
355.198
364.078
361.739
344.939
348.178
349.346
336.77
124.385
339.903
349.37
346.151
330.041
332.516
335.138
338.016
339.096
334.802
330.288
313.745
315.905
316.98
313.637
276.279
314.376
317.033
313.905
297.291
299.302
299.964
298.586
297.319
298.82
300.057
297.401
280.658
282.745
282.564
282.295
282.174
282.362
282.628
280.752
263.61
265.833
265.785
265.719
265.694
265.734
265.806
263.695
245.886
248.304
248.297
248.281
248.275
248.284
248.302
245.957
223.506
226.724
226.725
226.724
226.724
226.725
226.726
223.506
518.423
558.81
556.393
337.627
346.079
556.616
560.398
515.678
490.535
542.963
539.786
497.112
217.641
542.762
539.684
494.32
424.923
525.92
525.675
485.983
264.037
525.16
525.958
539.476
429.101
511.866
511.51
513.276
313.936
509.992
511.941
515.249
416.064
494.742
494.141
492.734
498.915
493.787
494.559
493.965
405.501
476.367
475.875
475.725
380.836
476.18
476.05
475.044
397.16
456.629
456.546
456.919
277.248
456.963
456.396
454.954
388.144
435.097
435.032
434.704
294.586
435.044
434.735
433.066
376.422
411.786
412.748
411.002
475.085
411.672
412.836
409.603
372.147
394.969
395.694
395.242
395.971
395.394
395.944
393.464
360.883
379.268
380.179
380.56
396.706
380.229
380.147
377.673
355.096
363.584
364.568
364.757
363.027
364.867
364.542
361.517
344.736
348.045
349.401
349.913
349.331
349.999
349.361
345.977
329.884
332.226
333.822
335.505
336.455
335.435
333.76
330.089
313.68
315.826
316.846
316.653
316.232
316.712
316.756
313.839
297.258
299.252
299.925
299.059
298.865
299.238
300.009
297.339
280.508
282.625
282.318
282.181
282.437
282.069
282.359
280.59
263.558
265.596
265.789
265.791
265.776
265.801
265.67
263.607
245.856
248.166
248.262
248.299
248.294
248.3
248.078
245.887
223.453
226.669
226.727
226.726
226.726
226.727
226.73
223.451
536.206
558.743
559.201
562.787
562.352
558.529
558.737
541.01
513.205
536.789
537.316
539.46
538.73
536.639
537.044
517.134
439.435
525.71
525.552
525.421
526.691
525.877
525.971
542.68
438.625
509.678
509.676
509.814
509.955
509.912
510.009
519.664
427.305
492.623
492.972
492.932
492.966
492.886
492.923
501.825
428.117
474.289
474.529
474.556
474.599
474.476
474.499
480.809
431.705
454.356
454.552
454.564
454.589
454.47
454.513
456.788
411.791
432.63
432.805
432.749
432.726
432.665
432.759
433.552
399.672
408.895
409.122
409.023
409.016
408.963
409.073
409.347
390.153
393.158
393.281
393.267
393.294
393.229
393.259
393.216
377.316
377.454
377.591
377.612
377.629
377.595
377.554
377.202
361.577
361.712
361.881
361.939
361.958
361.894
361.782
361.531
345.859
345.904
346.107
346.225
346.275
346.148
346.043
345.83
329.928
329.974
330.125
330.13
330.178
330.095
330.112
329.935
313.689
313.59
313.489
313.334
313.354
313.368
313.623
313.72
297.194
297.014
296.986
296.838
296.835
296.889
297.066
297.248
280.459
280.329
280.282
280.154
280.142
280.179
280.356
280.528
263.38
263.229
263.127
263.117
263.095
263.098
263.217
263.451
245.683
245.455
245.433
245.491
245.481
245.49
245.426
245.574
223.384
223.392
223.41
223.41
223.41
223.411
223.388
223.404
537.954
558.325
557.574
557.749
557.692
557.558
558.083
524.632
520.767
536.543
536.283
536.176
536.145
536.134
536.658
507.511
506.969
523.17
522.782
522.674
522.646
522.661
523.155
497.973
490.586
506.608
506.174
506.11
506.088
506.112
506.589
484.378
471.239
489.346
488.773
488.759
488.739
488.746
489.257
468.747
457.283
470.501
469.91
469.913
469.881
469.884
470.453
452.083
435.846
450.128
449.481
449.478
449.431
449.426
450.077
434.68
417.674
427.926
427.236
427.224
427.169
427.141
427.853
417.295
401.424
405.552
405.062
405.054
405.035
405.006
405.478
401.408
387.644
389.773
389.26
389.251
389.245
389.238
389.717
387.743
371.503
374.028
373.501
373.494
373.494
373.504
373.993
371.626
355.801
358.249
357.745
357.751
357.75
357.749
358.232
355.947
339.936
342.403
341.882
341.9
341.899
341.887
342.392
340.091
324.029
326.306
325.759
325.763
325.761
325.765
326.296
324.188
308.189
309.834
309.424
309.417
309.418
309.43
309.824
308.351
292.821
292.82
292.877
292.871
292.871
292.881
292.814
293.004
275.729
276.002
275.967
275.963
275.963
275.97
275.985
275.891
258.39
258.584
258.557
258.551
258.55
258.565
258.588
258.52
240.145
240.27
240.263
240.263
240.263
240.279
240.311
240.226
223.587
223.609
223.606
223.605
223.605
223.607
223.611
223.577
512.202
500.533
499.311
512.596
512.651
499.855
499.223
512.078
499.285
499.001
512.605
563.119
499.042
530.396
532.641
498.837
504.796
404.193
115.78
450.676
123.036
512.002
504.674
498.868
115.787
430.755
123.223
475.321
512.235
499.03
499.272
560.699
512.586
528.125
499.353
512.877
499.296
500.057
512.61
513.394
499.521
500.591
494.86
482.427
481.091
495.415
494.66
481.53
480.581
494.53
481.039
480.816
494.436
513.859
480.295
479.773
496.928
480.701
480.508
476.265
132.946
478.018
242.078
494.402
480.512
480.737
133.286
494.487
243.281
483.623
494.807
480.847
481.025
512.021
494.742
478.743
480.597
495.626
481.073
481.886
494.959
496.155
480.887
482.212
476.359
463.058
461.682
475.989
475.779
461.26
460.936
476.126
461.66
461.594
475.499
473.076
460.929
459.086
475.906
461.574
461.605
473.093
336.687
457.796
421.353
476.072
461.605
461.611
338.958
473.813
421.641
457.882
476.295
461.621
461.643
473.174
475.8
459.292
461.031
477.153
461.657
462.458
476.085
477.472
461.246
462.7
456.615
442.172
440.792
456.165
455.762
440.26
440.011
456.563
440.795
440.78
455.906
454.491
440.282
439.638
456.606
440.796
440.829
453.367
379.982
438.921
282.136
456.596
440.828
440.836
379.922
453.47
280.886
438.979
456.584
440.807
440.775
454.515
456.004
439.64
440.393
457.379
440.761
441.479
456.182
457.089
440.414
441.207
435.289
419.355
418.009
434.732
434.576
417.438
417.958
435.264
417.993
417.89
434.875
434.471
418.054
418.222
435.293
417.853
417.738
433.846
258.772
417.838
206.874
435.317
417.728
417.893
257.278
433.902
205.243
417.883
435.271
417.914
417.968
434.479
434.988
418.229
418.05
435.977
417.973
418.633
434.984
435.569
417.954
417.436
411.985
399.265
399.011
411.282
413.477
398.531
397.703
411.827
399.002
398.873
413.527
413.425
397.83
396.235
411.63
398.81
398.703
413.139
132.676
395.418
312.576
411.808
398.7
398.837
132.034
413.137
310.893
395.362
411.935
398.888
398.982
413.435
413.526
396.196
397.82
412.638
398.984
398.985
413.477
411.257
397.627
398.515
395.071
383.15
383.27
394.605
395.635
382.881
382.125
394.97
383.321
383.389
395.821
394.05
382.095
380.765
394.813
383.359
383.352
393.226
419.108
380.378
377.551
394.936
383.349
383.389
419.411
393.169
377.528
380.339
395.061
383.405
383.298
394.008
395.811
380.734
382.088
394.793
383.241
383.163
395.625
394.587
382.124
382.862
379.356
367.575
367.705
378.992
380.188
367.402
366.509
379.552
367.747
367.916
380.166
379.024
366.469
366.244
379.553
367.944
368.012
378.709
376.63
366.264
366.014
379.571
368.008
367.985
376.611
378.677
366.301
366.248
379.398
367.944
367.738
378.999
380.16
366.227
366.471
379.245
367.685
367.596
380.189
378.972
366.517
367.382
363.845
351.9
352.091
363.595
364.592
352.009
351.333
364.037
352.151
352.446
364.603
365.244
351.383
350.941
364.109
352.476
352.556
365.208
363.406
350.836
349.598
364.095
352.549
352.517
363.365
365.189
349.598
350.812
363.882
352.476
352.144
365.224
364.611
350.92
351.389
363.695
352.07
351.922
364.601
363.574
351.345
351.987
348.14
336.086
336.341
348.123
349.423
336.345
336.012
348.531
336.406
336.675
349.509
350.124
336.159
337.078
348.677
336.746
336.903
350.034
349.055
337.206
337.992
348.621
336.897
336.792
349.056
350.011
337.993
337.185
348.187
336.704
336.398
350.103
349.516
337.072
336.167
347.974
336.319
336.108
349.435
348.101
336.028
336.321
332.327
319.815
319.892
332.328
333.967
320.002
319.081
332.61
319.892
319.893
334.163
336.118
319.086
318.006
332.82
319.852
319.763
336.256
337.164
317.97
316.84
332.712
319.762
319.767
337.166
336.236
316.841
317.939
332.384
319.758
319.846
336.111
334.168
317.98
319.06
332.083
319.857
319.828
333.983
332.301
319.058
319.941
315.738
303.322
303.133
315.871
316.853
303.413
302.104
315.583
303.067
302.932
316.87
316.781
302.04
301.204
315.373
302.875
302.853
316.723
315.593
301.112
300.619
315.406
302.828
302.925
315.593
316.693
300.625
301.075
315.622
302.961
303.058
316.738
316.823
301.195
302.046
315.745
303.13
303.354
316.897
315.814
302.116
303.405
299.004
286.731
286.573
299.252
300.049
286.974
285.498
298.767
286.455
286.273
300.032
299.174
285.341
284.949
298.697
286.232
286.248
299.097
298.669
284.926
285.422
298.761
286.246
286.272
298.67
299.058
285.422
284.899
298.932
286.316
286.479
299.165
299.935
284.961
285.483
299.263
286.573
286.849
300.027
299.252
285.501
286.951
282.341
269.665
269.607
282.719
282.243
269.911
269.607
282.087
269.538
269.427
282.164
281.899
269.545
269.999
282.059
269.485
269.572
282.015
282.333
270.037
270.017
282.114
269.576
269.529
282.334
282.008
270.017
270.037
282.295
269.523
269.61
282.003
282.28
270.001
269.662
282.624
269.645
269.786
282.362
282.669
269.761
269.907
265.308
252.268
252.332
265.691
265.335
252.487
252.734
265.221
252.424
252.767
265.382
265.793
252.766
252.753
265.493
252.766
252.762
265.783
265.767
252.75
252.744
265.436
252.762
252.766
265.767
265.784
252.744
252.75
265.366
252.767
252.411
265.793
265.433
252.753
252.766
265.471
252.295
252.322
265.431
265.715
252.737
252.537
247.996
236.647
236.698
248.154
248.314
236.719
236.72
248.306
236.72
236.719
248.308
248.298
236.717
236.715
248.302
236.718
236.717
248.296
248.292
236.713
236.712
248.304
236.717
236.718
248.292
248.296
236.712
236.713
248.152
236.719
236.72
248.298
248.308
236.715
236.717
247.924
236.674
236.643
248.317
248.184
236.719
236.717
512.439
498.978
499.03
512.19
512.026
499.296
499.147
545.86
498.691
540.394
511.661
502.442
498.858
489.268
120.23
232.563
116.146
485.965
184.129
471.558
186.383
246.872
115.865
244.125
183.523
488.278
186.544
471.5
512.53
547.063
499.403
502.843
511.958
489.333
498.945
513.257
499.682
500.216
512.132
512.2
499.17
499.302
494.465
480.712
480.283
494.845
494.626
481.032
480.559
536.775
479.873
497.125
494.386
484.405
480.223
469.392
117.234
388.11
139.952
466.214
188.842
448.853
209.511
262.622
140.111
406.598
189.225
465.874
210.758
448.679
494.814
494.36
480.485
484.503
494.406
469.497
480.235
495.781
480.892
482.086
494.65
494.849
480.572
481.034
475.433
461.206
460.568
476.271
475.725
461.49
460.865
481.687
460.319
456.802
475.356
464.347
460.443
449.373
154.98
456.157
168.456
443.43
220.099
428.659
243.595
450.918
169.246
456.195
221.465
443.308
243.645
428.507
475.629
457.051
460.719
464.439
475.367
449.402
460.426
477.362
461.107
462.347
475.735
476.271
460.852
461.487
455.488
440.219
439.779
456.382
455.782
440.438
439.847
452.251
439.845
437.637
455.361
444.424
439.64
429.501
156.665
437.117
119.939
423.912
240.665
409.45
198.789
449.747
120.171
437.165
240.001
423.715
197.451
409.135
455.667
437.618
440.095
444.423
455.33
429.404
439.579
456.289
440.313
440.377
455.759
456.377
439.808
440.432
434.353
417.331
417.602
434.892
434.326
417.459
417.174
432.517
417.771
416.117
434.068
424.381
416.924
407.921
110.685
420.972
89.7583
405.815
181.105
395.28
133.69
433.409
89.7514
421.219
179.986
405.593
133.485
395.089
434.714
416.109
417.643
424.257
434.008
407.815
416.892
434.766
417.552
417.331
434.286
434.887
417.151
417.463
413.322
398.509
397.62
411.373
412.612
398.562
397.267
412.281
397.814
395.576
412.547
403.25
397.165
388.72
87.4822
394.182
142.11
398.379
109.331
382.438
90.3554
409.806
141.499
394.11
109.558
398.303
90.6626
382.35
413.451
395.53
397.795
403.203
412.526
388.688
397.169
411.265
397.589
398.511
412.591
411.379
397.271
398.565
395.672
382.842
382.115
394.626
395.267
382.874
381.445
393.383
382.078
380.328
395.158
386.414
381.32
371.556
241.029
379.758
381.593
380
89.1161
364.678
78.6494
392.009
380.971
379.666
89.445
379.897
79.4377
364.582
395.785
380.246
382.06
386.37
395.162
371.512
381.32
394.579
382.082
382.844
395.271
394.629
381.446
382.875
380.177
367.326
366.479
378.973
379.496
367.336
365.99
378.623
366.351
366.043
379.371
369.629
365.857
355.721
386.115
366.009
480.431
362.732
79.135
352.727
77.6806
378.051
483.601
365.999
80.4225
362.653
82.7004
352.736
380.137
366.035
366.333
369.599
379.37
355.726
365.854
378.953
366.445
367.329
379.496
378.974
365.989
367.337
364.578
352.004
351.367
363.481
364.085
351.997
351.152
364.999
351.416
350.792
363.95
354.941
351.097
340.015
450.396
350.681
349.042
352.016
77.8666
336.524
486.133
364.928
349.041
350.651
83.8922
352.012
340.404
336.45
364.551
350.768
351.393
354.937
363.947
339.947
351.098
363.475
351.329
352.008
364.083
363.482
351.154
351.998
349.464
336.399
336.146
348.183
349.381
336.542
336.84
349.992
336.316
337.375
349.363
339.305
337.178
339.212
348.592
337.488
338.225
335.814
453.151
337.902
166.89
349.867
338.225
337.46
303.515
335.754
169.732
337.864
349.535
337.354
336.288
339.247
349.365
339.201
337.184
348.142
336.103
336.401
349.383
348.185
336.845
336.544
334.135
319.996
319.162
332.526
334.849
320.103
319.292
336.413
319.177
317.929
335.201
339.156
319.284
315.691
337.514
317.862
316.445
338.102
164.177
314.891
270.894
336.509
316.439
317.813
167.119
338.077
270.879
314.876
334.283
317.847
319.093
339.156
335.208
315.677
319.285
332.375
319.055
319.96
334.854
332.528
319.294
320.103
316.979
303.426
302.094
315.909
317.037
303.43
302.105
316.675
302.058
301.031
316.982
314.335
302
300.592
315.204
300.934
300.348
313.568
278.09
300.283
298.501
316.544
300.35
300.905
278.078
313.554
298.501
300.277
316.895
301.056
301.983
314.321
316.982
300.587
301.999
315.813
302.039
303.367
317.037
315.91
302.104
303.431
300.107
286.94
285.524
299.299
300.054
286.899
285.725
299.021
285.422
285.028
299.96
298.784
285.69
285.371
298.457
285.122
285.449
298.545
297.251
285.326
285.125
298.914
285.449
285.015
297.251
298.541
285.125
285.325
299.871
285.005
285.456
298.779
299.959
285.37
285.69
299.213
285.461
286.947
300.054
299.299
285.725
286.899
282.455
270.091
269.905
282.741
282.625
270.106
270.068
282.142
269.833
270.022
282.56
282.354
270.039
269.968
282.38
270.007
269.979
282.286
282.162
269.946
269.909
282.247
269.979
270.006
282.162
282.286
269.909
269.946
282.287
270.022
269.849
282.355
282.56
269.968
270.039
282.746
269.923
270.048
282.625
282.741
270.068
270.106
265.586
252.654
252.767
265.83
265.805
252.76
252.757
265.772
252.761
252.745
265.784
265.732
252.75
252.731
265.741
252.742
252.735
265.717
265.692
252.726
252.718
265.76
252.735
252.742
265.692
265.717
252.718
252.726
265.64
252.745
252.761
265.732
265.784
252.731
252.75
265.816
252.766
252.712
265.805
265.83
252.757
252.76
248.308
236.717
236.717
248.301
248.301
236.716
236.716
248.293
236.714
236.711
248.297
248.283
236.711
236.709
248.286
236.709
236.707
248.28
248.274
236.706
236.705
248.291
236.707
236.709
248.274
248.28
236.705
236.706
248.304
236.711
236.714
248.283
248.297
236.709
236.711
248.303
236.717
236.717
248.301
248.301
236.716
236.716
511.654
499.235
498.736
511.934
511.312
499.201
498.506
502.381
498.502
489.826
511.047
527.817
498.289
496.853
221.184
472.959
246.767
446.731
157.32
498.098
211.749
489.975
242.911
473.234
159.723
490.052
219.829
500.114
511.486
490.14
498.539
523.098
511.501
497.107
498.582
512.131
498.777
499.252
511.691
511.632
498.585
498.871
494.254
481.003
480.312
494.808
494.105
481.153
480.476
485.284
480.018
470.832
493.91
491.588
480.526
479.028
249.834
452.823
249.04
493.596
211.167
482.08
171.096
468.387
245.092
453.162
218.906
494.089
173.895
482.686
494.041
470.972
480.032
492.307
494.105
479.609
480.58
494.811
480.325
481.021
494.178
494.471
480.521
480.794
475.515
461.466
460.712
476.431
475.78
461.724
461.441
465.85
460.39
450.761
475.861
474.635
461.483
461.161
245.103
431.893
212.671
480.178
156.984
476.394
128.334
447.969
208.803
432.341
159.122
480.047
129.364
474.566
475.212
450.825
460.366
475.092
475.894
461.075
461.459
476.265
460.694
461.485
475.881
476.07
461.432
461.349
455.635
440.399
439.878
456.627
456.319
440.669
440.58
445.747
439.618
430.652
456.385
456.329
440.647
440.624
196.935
411.097
149.658
475.485
122.096
463.683
112.04
427.133
148.303
411.397
122.942
473.089
112.775
459.832
455.285
430.612
439.553
456.133
456.34
440.23
440.508
456.374
439.833
440.415
456.294
456.249
440.445
440.291
434.406
417.405
417.145
435.111
434.943
417.754
417.213
425.474
416.898
408.45
434.997
434.369
417.116
415.225
137.123
395.716
111.972
453.634
112.808
413.519
148.628
406.937
111.848
396.001
113.714
449.921
151.791
413.91
434.095
408.434
416.871
434.101
434.764
415.316
417.1
434.865
417.123
417.431
434.72
434.734
417.199
417.384
412.568
398.542
397.254
411.682
412.706
398.811
397.628
403.254
397.141
388.828
412.692
410.796
397.613
396.892
106.193
381.973
91.8136
409.672
323.271
396.632
416.532
397.985
91.9695
382.08
325.672
409.811
414.577
396.779
412.466
388.877
397.15
410.896
412.704
397.023
397.624
411.349
397.26
398.557
412.705
411.317
397.658
398.586
395.263
382.868
381.487
394.887
395.682
383.14
382.097
386.631
381.369
372.431
395.671
395.134
382.106
382.374
91.0556
365.158
88.0957
394.944
432.28
382.383
604.462
379.774
89.0333
365.207
429.727
395.085
602.385
382.392
395.154
372.428
381.371
395.219
395.768
382.123
382.094
394.625
381.488
382.876
395.776
394.663
382.074
382.925
379.536
367.331
365.987
379.229
380.148
367.469
366.416
370.549
365.852
356.017
380.155
380.398
366.392
365.429
87.8701
353.009
68.5022
380.284
604.441
365.313
362.646
363.317
70.1209
353.031
602.019
380.242
362.694
365.552
379.42
355.999
365.85
380.015
380.131
365.683
366.375
378.975
365.985
367.334
380.114
379.02
366.393
367.312
364.08
351.993
351.142
363.61
364.533
351.989
351.271
355.218
351.085
340.716
364.511
364.478
351.327
350.789
67.1775
337.503
116.412
364.362
362.164
350.723
349.716
352.285
155.285
337.416
362.197
364.602
349.722
350.728
363.942
340.627
351.086
364.732
364.497
350.722
351.333
363.479
351.144
351.996
364.513
363.444
351.275
351.971
349.368
336.532
336.782
348.089
349.4
336.323
335.892
339.985
337.111
339.203
349.473
349.905
336.037
336.646
100.267
337.918
63.7531
349.828
348.853
336.693
337.76
336.698
64.4603
337.915
348.856
349.845
337.761
336.755
349.349
339.214
337.119
349.903
349.481
336.67
336.052
348.181
336.789
336.535
349.404
348.089
335.897
336.322
334.795
320.096
319.284
332.306
333.888
319.952
319.047
339.073
319.277
315.737
333.986
335.665
318.979
317.837
314.948
266.271
335.719
336.789
317.725
317.175
338.026
266.252
314.93
336.791
335.756
317.172
317.755
335.146
315.721
319.278
335.679
333.997
317.84
318.951
332.519
319.285
320.099
333.891
332.303
318.96
319.949
317.033
303.432
302.108
315.819
316.902
303.389
302.053
314.392
302.005
300.64
316.787
316.658
301.979
301.292
276.292
300.34
298.599
316.558
316
301.024
300.6
313.62
298.599
300.339
315.998
316.587
300.599
301.027
316.981
300.639
302.006
316.66
316.81
301.313
301.981
315.909
302.108
303.434
316.835
315.818
302.053
303.386
300.057
286.903
285.726
299.255
299.948
286.915
285.435
298.82
285.693
285.377
299.861
299.258
285.408
285.164
297.32
285.332
285.134
299.004
298.652
285.459
285.512
298.586
285.134
285.332
298.652
298.999
285.512
285.402
299.965
285.376
285.692
299.285
299.863
285.158
285.409
299.304
285.726
286.905
299.958
299.249
285.435
286.91
282.628
270.109
270.069
282.591
282.301
269.897
269.994
282.362
270.041
269.97
282.242
282.363
270.038
270.033
282.174
269.949
269.912
282.493
282.423
270.018
269.993
282.295
269.912
269.948
282.423
282.44
269.993
270.018
282.564
269.97
270.041
282.357
282.246
270.033
270.04
282.747
270.069
270.111
282.304
282.639
269.997
269.855
265.806
252.763
252.758
265.734
265.824
252.757
252.647
265.734
252.75
252.732
265.813
265.779
252.711
252.748
265.694
252.727
252.719
265.769
265.751
252.744
252.738
265.719
252.719
252.727
265.751
265.769
252.738
252.744
265.785
252.732
252.75
265.779
265.814
252.748
252.712
265.836
252.758
252.765
265.825
265.717
252.59
252.769
248.301
236.716
236.716
248.26
248.301
236.704
236.717
248.284
236.712
236.709
248.305
248.295
236.714
236.711
248.275
236.706
236.705
248.293
248.288
236.709
236.708
248.281
236.705
236.706
248.288
248.293
236.708
236.709
248.297
236.709
236.712
248.295
248.305
236.711
236.714
248.306
236.716
236.716
248.258
248.272
236.717
236.686
511.598
499.13
498.535
512.909
511.898
500.001
499.228
510.125
498.607
497.6
511.881
511.72
499.212
499.102
305.536
496.999
500.229
511.645
511.331
499.047
498.976
511.804
505.468
496.868
511.354
511.667
498.98
499.062
511.864
497.928
498.984
511.744
511.91
499.119
499.241
511.723
498.937
498.824
511.943
512.675
499.273
499.838
494.146
481.088
480.552
495.66
494.865
482.01
481.306
493.379
480.527
480.349
494.858
494.776
481.329
481.315
493.928
480.077
406.465
494.733
494.698
481.317
481.339
492.864
415.888
480.233
494.699
494.745
481.339
481.317
494.515
480.741
480.931
494.787
494.884
481.313
481.345
494.439
480.777
480.803
494.909
495.49
481.346
481.898
475.867
461.658
461.54
477.335
476.615
462.572
461.974
475.907
461.659
461.945
476.647
476.643
462.019
462.002
373.315
461.796
293.761
476.658
476.679
462.044
462.003
475.724
300.603
461.757
476.681
476.655
462.01
462.031
476.199
461.929
461.832
476.638
476.66
461.99
462.023
476.09
461.528
461.401
476.654
477.206
462.006
462.44
456.412
440.645
440.772
457.505
456.891
441.467
440.965
457.003
440.718
441.04
456.931
456.894
440.986
440.858
272.385
440.779
269.038
456.936
456.859
440.867
440.692
456.847
274.335
440.62
456.865
456.92
440.696
440.851
456.721
440.975
440.615
456.88
456.932
440.841
440.979
456.358
440.579
440.437
456.918
457.361
440.982
441.1
435.029
417.853
417.199
435.731
435.421
418.328
418.073
435.091
417.346
416.836
435.435
435.277
418.074
417.887
288.202
415.95
429.152
435.268
435.084
417.846
417.714
434.614
431.664
416.066
435.087
435.254
417.717
417.843
434.847
416.881
417.354
435.261
435.425
417.879
418.054
434.909
417.249
417.641
435.434
435.626
418.091
418.188
412.684
398.886
397.656
412.212
412.052
399.096
399.121
411.583
397.639
397.176
412.063
411.889
399.133
399.084
473.984
396.991
396.824
411.849
411.748
399.078
399.084
411.152
396.637
397.092
411.75
411.847
399.085
399.073
412.856
397.252
397.726
411.88
412.031
399.072
399.112
411.587
397.849
398.749
412.066
412.18
399.106
399.059
395.71
383.19
382.13
395.279
395.177
383.47
383.351
395.379
382.13
382.512
395.235
395.203
383.46
383.51
396.188
382.573
402.395
395.205
395.224
383.509
383.511
395.336
401.584
382.458
395.225
395.2
383.511
383.51
395.861
382.248
382.109
395.194
395.212
383.509
383.455
394.825
382.105
383.053
395.192
395.032
383.41
383.164
380.181
367.462
366.5
379.54
379.463
367.708
367.713
380.514
366.502
365.834
379.498
379.588
367.723
367.794
397.278
365.712
363.692
379.576
379.563
367.799
367.78
380.417
363.729
365.718
379.563
379.584
367.78
367.829
380.148
365.821
366.472
379.593
379.526
367.83
367.735
379.136
366.475
367.397
379.489
379.258
367.698
367.461
364.558
351.947
351.236
363.769
363.83
351.863
352.03
364.876
351.273
350.875
363.835
363.9
352.052
352.188
363
350.814
350.211
363.925
363.908
352.239
352.356
364.767
350.215
350.854
363.908
363.965
352.356
352.229
364.543
350.899
351.273
363.941
363.824
352.175
352.053
363.522
351.245
351.931
363.776
363.589
352.038
351.866
349.351
336.241
335.752
347.926
348.077
336.047
336.257
349.982
335.865
336.422
348.111