/*--------------------------------*- C++ -*----------------------------------*\
| =========                 |                                                 |
| \\      /  F ield         | OpenFOAM: The Open Source CFD Toolbox           |
|  \\    /   O peration     | Version:  2206                                  |
|   \\  /    A nd           | Website:  www.openfoam.com                      |
|    \\/     M anipulation  |                                                 |
\*---------------------------------------------------------------------------*/
FoamFile
{
    version     2.0;
    format      ascii;
    arch        "LSB;label=32;scalar=64";
    class       volScalarField;
    location    "400";
    object      k;
}
// * * * * * * * * * * * * * * * * * * * * * * * * * * * * * * * * * * * * * //

dimensions      [0 2 -2 0 0 0 0];

internalField   nonuniform List<scalar> 
198968
(
0.337909
0.309677
0.309762
0.309797
0.309796
0.309761
0.309674
0.338309
0.362937
0.367735
0.369738
0.369578
0.369267
0.369801
0.36894
0.36339
0.424588
0.375564
0.378298
0.378152
0.377902
0.378389
0.377527
0.373572
0.424792
0.39067
0.393891
0.393776
0.393511
0.394044
0.392966
0.388496
0.433077
0.405646
0.410289
0.410502
0.410315
0.410764
0.408848
0.402868
0.449719
0.418702
0.423663
0.42485
0.425638
0.424362
0.422374
0.41595
0.466517
0.432001
0.438497
0.440179
0.441502
0.439238
0.437105
0.428719
0.484419
0.448221
0.4534
0.456466
0.457883
0.454665
0.452849
0.444067
0.50517
0.467888
0.469979
0.473839
0.474397
0.472015
0.470066
0.464297
0.525093
0.493984
0.494169
0.49518
0.495312
0.495
0.494588
0.490642
0.544934
0.523313
0.524845
0.525189
0.52525
0.525138
0.52493
0.519859
0.56958
0.557093
0.560287
0.560454
0.560481
0.560462
0.560154
0.553784
0.615385
0.599098
0.601787
0.601841
0.601857
0.601836
0.601799
0.594285
0.673835
0.655115
0.655579
0.655602
0.655612
0.655599
0.655628
0.64651
0.743995
0.721716
0.722022
0.722125
0.722159
0.722101
0.722144
0.710959
0.829396
0.802547
0.802784
0.802817
0.802822
0.802811
0.802799
0.789119
0.925059
0.902613
0.902747
0.902763
0.902766
0.902759
0.902746
0.884874
1.05756
1.02972
1.02978
1.02978
1.02978
1.02978
1.02979
1.00664
1.22886
1.19652
1.1964
1.19635
1.19634
1.19637
1.19646
1.1681
1.49833
1.42347
1.42329
1.42311
1.42308
1.42319
1.42339
1.49833
0.385876
0.288909
0.288994
0.289059
0.289045
0.289033
0.288978
0.286625
0.397746
0.305044
0.305117
0.305184
0.305163
0.305158
0.30511
0.302534
0.408687
0.319592
0.319641
0.319714
0.319694
0.319683
0.31965
0.317001
0.419702
0.335386
0.335419
0.335477
0.335462
0.335443
0.335452
0.332584
0.431831
0.352741
0.352797
0.352883
0.352867
0.352838
0.352818
0.349695
0.443067
0.372309
0.372264
0.372237
0.37219
0.372239
0.372317
0.36984
0.456555
0.394153
0.39404
0.394014
0.393939
0.394031
0.394075
0.392769
0.472332
0.418433
0.418403
0.418344
0.418267
0.418385
0.418402
0.416842
0.489751
0.445689
0.445726
0.445679
0.445641
0.4457
0.445718
0.445375
0.512149
0.476409
0.476483
0.476569
0.476567
0.476506
0.47647
0.475867
0.53693
0.511794
0.511585
0.511635
0.511617
0.511606
0.511731
0.511256
0.563795
0.552541
0.552253
0.552161
0.552158
0.55219
0.552451
0.552448
0.598923
0.599621
0.599528
0.599462
0.599431
0.59946
0.599596
0.599418
0.655589
0.655285
0.655284
0.655377
0.655367
0.655393
0.655273
0.655038
0.722303
0.722161
0.722918
0.72321
0.723245
0.723228
0.722897
0.722063
0.803265
0.803452
0.804141
0.80432
0.804317
0.804262
0.804039
0.803254
0.90414
0.904043
0.904502
0.90459
0.904588
0.904637
0.904294
0.903485
1.03213
1.03231
1.03272
1.03242
1.03222
1.03263
1.03264
1.03152
1.20039
1.20032
1.20021
1.19996
1.19983
1.20007
1.20032
1.20014
1.42759
1.4269
1.42616
1.42582
1.42568
1.42593
1.42658
1.42717
0.401601
0.289285
0.292663
0.293175
0.293246
0.292999
0.292127
0.288034
0.416625
0.305333
0.30778
0.308199
0.308197
0.308049
0.30742
0.303999
0.429234
0.319875
0.321365
0.321495
0.321447
0.321398
0.321267
0.318567
0.444834
0.333538
0.333625
0.333584
0.333593
0.333574
0.333633
0.33389
0.461925
0.350863
0.351035
0.351058
0.351065
0.351046
0.351028
0.350971
0.481351
0.369988
0.370135
0.37017
0.370163
0.370163
0.370132
0.370071
0.504963
0.391366
0.39143
0.391461
0.39144
0.391459
0.39142
0.391403
0.527614
0.415211
0.415194
0.415227
0.415195
0.41523
0.415183
0.415468
0.682956
0.441959
0.441889
0.441892
0.441881
0.441901
0.441899
0.441984
0.68272
0.472271
0.472057
0.472004
0.471997
0.472007
0.472104
0.47228
0.662485
0.506903
0.506514
0.506273
0.506295
0.506284
0.506624
0.506904
0.635463
0.547062
0.546519
0.545867
0.545946
0.545889
0.546688
0.546943
0.628115
0.593325
0.593156
0.592688
0.592375
0.592733
0.593227
0.593275
0.648346
0.647675
0.647379
0.647294
0.647074
0.647485
0.647426
0.647649
0.71272
0.712945
0.714092
0.715083
0.714997
0.715005
0.713731
0.712739
0.791197
0.792402
0.79345
0.794191
0.794365
0.794057
0.79322
0.791908
0.888577
0.89005
0.891671
0.893557
0.893705
0.893303
0.891251
0.8894
1.03259
1.01466
1.01621
1.01768
1.01799
1.01736
1.01582
1.03373
1.20097
1.17641
1.17679
1.17763
1.17793
1.1774
1.17664
1.2013
1.4264
1.42588
1.42603
1.42625
1.42633
1.42613
1.42589
1.4261
0.40223
0.293166
0.367604
0.406454
0.409792
0.403965
0.339114
0.287932
0.417372
0.308442
0.385558
0.43338
0.437387
0.430615
0.350884
0.303833
0.431299
0.322285
0.400745
0.458297
0.462839
0.455224
0.359739
0.318233
0.447202
0.332897
0.37231
0.478209
0.477312
0.477363
0.36322
0.33392
0.464421
0.350499
0.373314
0.504022
0.502966
0.503075
0.363563
0.350924
0.485983
0.36975
0.380863
0.532725
0.531399
0.531503
0.372263
0.369957
0.505724
0.391187
0.397153
0.564129
0.561852
0.562382
0.390597
0.391459
0.535155
0.415078
0.418796
0.595811
0.592109
0.592954
0.414349
0.41545
0.699209
0.442035
0.436145
0.621077
0.611527
0.619946
0.439028
0.442043
0.669855
0.47257
0.469956
0.603115
0.590306
0.600299
0.470391
0.472594
0.642898
0.507149
0.504456
0.555749
0.545396
0.553804
0.504527
0.507185
0.640678
0.546799
0.543669
0.542613
0.544208
0.542483
0.543824
0.546862
0.640265
0.593244
0.589469
0.587734
0.588631
0.587669
0.589158
0.593255
0.646075
0.647564
0.643756
0.641977
0.642554
0.641926
0.643677
0.647494
0.712718
0.713183
0.709335
0.70909
0.709747
0.709131
0.709177
0.712955
0.791217
0.792821
0.789155
0.791561
0.792787
0.791425
0.788802
0.792126
0.888311
0.890721
0.893072
0.894997
0.896424
0.894463
0.8926
0.88967
1.03087
1.01407
1.01637
1.01907
1.01975
1.01848
1.01578
1.03242
1.20002
1.17615
1.17809
1.17854
1.17861
1.17848
1.17787
1.20079
1.42606
1.42614
1.42646
1.42656
1.42659
1.42652
1.42635
1.42609
0.370232
0.292875
0.368928
0.425083
0.472742
0.405458
0.339048
0.287944
0.399421
0.30815
0.387261
0.458659
0.529953
0.4324
0.350771
0.303772
0.431946
0.322014
0.402796
0.489254
0.58751
0.457047
0.359599
0.317994
0.447158
0.333134
0.374954
0.499624
0.760974
0.481144
0.362488
0.333719
0.464787
0.350559
0.376644
0.527802
0.9272
0.507573
0.362894
0.350782
0.486817
0.369773
0.384711
0.559716
1.11571
0.537099
0.371755
0.369763
0.50619
0.391174
0.400884
0.59592
1.33939
0.569286
0.390242
0.391328
0.536375
0.415042
0.421687
0.63364
1.61939
0.601722
0.414084
0.415445
0.702546
0.441928
0.435816
0.651196
2.87689
0.634657
0.438503
0.441995
0.67204
0.472532
0.468817
0.640809
4.10552
0.61938
0.47003
0.472631
0.642016
0.507214
0.504054
0.596592
5.67449
0.574737
0.504363
0.507248
0.642952
0.546833
0.543712
0.567625
21.0662
0.55957
0.543755
0.546952
0.641237
0.593176
0.589295
0.615499
60.1011
0.607287
0.589363
0.593243
0.646
0.647475
0.6436
0.658211
0.653102
0.643566
0.647465
0.712758
0.713958
0.710709
0.712089
0.731348
0.711727
0.710576
0.713544
0.791184
0.792595
0.790191
0.792213
0.794127
0.791741
0.789938
0.792078
0.888156
0.890657
0.893039
0.895951
0.897104
0.89517
0.89257
0.889663
1.03038
1.01371
1.01667
1.01938
1.01998
1.01887
1.0158
1.03217
1.19992
1.1759
1.1784
1.1787
1.17877
1.17865
1.17817
1.20074
1.4261
1.42621
1.4265
1.42661
1.42664
1.42657
1.42641
1.42615
0.381584
0.293055
0.348735
0.365401
0.365534
0.363569
0.33726
0.286823
0.411872
0.308427
0.362285
0.382523
0.382696
0.380247
0.349095
0.302731
0.430174
0.322279
0.373053
0.397111
0.397312
0.394433
0.358179
0.318103
0.447083
0.332714
0.369407
0.442965
0.444472
0.441032
0.364252
0.333505
0.4646
0.350226
0.369797
0.458871
0.46085
0.456599
0.364172
0.350522
0.484834
0.369671
0.377271
0.477925
0.48027
0.475497
0.372666
0.369597
0.506175
0.391197
0.393994
0.503063
0.503519
0.501118
0.390911
0.390882
0.531316
0.415133
0.416588
0.528823
0.529867
0.526137
0.414603
0.415565
0.695628
0.442094
0.436835
0.622567
0.614061
0.620611
0.438968
0.442099
0.670899
0.472506
0.469962
0.596418
0.585169
0.593599
0.470333
0.472533
0.649514
0.50712
0.504436
0.552903
0.543275
0.550861
0.504474
0.507148
0.639489
0.546792
0.543702
0.542384
0.543303
0.542274
0.543825
0.5469
0.639871
0.593222
0.589082
0.587654
0.588045
0.587524
0.589672
0.5933
0.646075
0.647558
0.643959
0.641897
0.642071
0.641862
0.643903
0.647556
0.712699
0.713017
0.709215
0.709009
0.709683
0.709039
0.709167
0.71285
0.791286
0.792715
0.788938
0.791398
0.791971
0.791289
0.788765
0.792164
0.888598
0.890587
0.893058
0.894557
0.895812
0.894213
0.892571
0.889759
1.03195
1.01425
1.0164
1.01869
1.0195
1.0181
1.01589
1.03324
1.20044
1.17607
1.17796
1.17841
1.17855
1.17834
1.17763
1.20104
1.42605
1.42598
1.42628
1.42647
1.42649
1.42641
1.42613
1.42595
0.38768
0.289142
0.288953
0.288851
0.28884
0.288866
0.289018
0.285849
0.400913
0.30527
0.30513
0.305035
0.305022
0.30506
0.305259
0.301542
0.411806
0.319856
0.319911
0.319937
0.319928
0.31995
0.320016
0.315755
0.422058
0.335781
0.335889
0.335928
0.335923
0.335923
0.33594
0.331401
0.435709
0.353196
0.353356
0.353404
0.353394
0.353407
0.353383
0.348162
0.449667
0.37268
0.37274
0.372748
0.372718
0.372762
0.372734
0.366801
0.467262
0.394431
0.39435
0.394345
0.394306
0.394366
0.394331
0.387621
0.484494
0.418555
0.418444
0.418424
0.418378
0.418458
0.418428
0.411328
0.503659
0.442011
0.441929
0.441893
0.441848
0.441919
0.441897
0.442334
0.523323
0.472373
0.472109
0.47207
0.472033
0.472064
0.472042
0.471921
0.541365
0.506947
0.506658
0.506525
0.506478
0.506406
0.506598
0.506865
0.570344
0.546799
0.546536
0.546155
0.546008
0.546093
0.54659
0.547016
0.603813
0.593247
0.593099
0.59283
0.592565
0.592868
0.593133
0.593324
0.655548
0.647461
0.647258
0.647299
0.6471
0.647414
0.647278
0.647588
0.721895
0.712793
0.714075
0.71468
0.714581
0.714719
0.713678
0.712764
0.802795
0.792172
0.79307
0.793608
0.793602
0.793643
0.792799
0.791833
0.903434
0.889721
0.890791
0.891902
0.891937
0.891987
0.890277
0.904384
1.03234
1.03329
1.03439
1.0348
1.03501
1.03469
1.03387
1.03295
1.20116
1.20125
1.20138
1.20163
1.20165
1.2015
1.20132
1.20129
1.42725
1.42633
1.426
1.42603
1.42605
1.42598
1.42612
1.42669
0.338535
0.30958
0.309698
0.309762
0.309764
0.309732
0.30965
0.337828
0.362576
0.289193
0.288125
0.288468
0.288752
0.288158
0.288766
0.362856
0.401237
0.306201
0.305021
0.305361
0.305642
0.305057
0.305668
0.291825
0.40585
0.321076
0.31973
0.3201
0.320405
0.31977
0.320425
0.315504
0.412632
0.337349
0.335765
0.336107
0.336391
0.335787
0.336569
0.331753
0.426348
0.357735
0.355622
0.355276
0.354711
0.355598
0.356856
0.352341
0.446618
0.382227
0.379554
0.37902
0.378061
0.379626
0.381065
0.37848
0.46905
0.41058
0.4083
0.406527
0.405281
0.407867
0.409171
0.408407
0.495406
0.443027
0.442208
0.438765
0.437971
0.440745
0.442297
0.440639
0.519295
0.475165
0.476872
0.476139
0.476065
0.476197
0.476622
0.470695
0.545147
0.510228
0.511975
0.511944
0.511926
0.511954
0.511686
0.505286
0.575117
0.552455
0.552527
0.552549
0.552557
0.552531
0.552661
0.546007
0.610884
0.599344
0.599693
0.599676
0.59968
0.599677
0.599773
0.591811
0.663983
0.655038
0.655443
0.655495
0.655515
0.655465
0.655487
0.645902
0.732083
0.721835
0.722392
0.722659
0.72276
0.722543
0.72226
0.710335
0.815241
0.802944
0.803492
0.8036
0.803613
0.803569
0.80339
0.788544
0.919402
0.903354
0.903617
0.903664
0.903672
0.90365
0.903603
0.885174
1.05252
1.03098
1.03103
1.031
1.031
1.03101
1.03108
1.00729
1.22756
1.1984
1.19834
1.19832
1.19829
1.19834
1.19839
1.16929
1.49833
1.42586
1.42549
1.42539
1.42539
1.4254
1.42571
1.49833
0.333629
0.346411
0.34654
0.332704
0.364097
0.345736
0.363452
0.333585
0.346545
0.346551
0.370062
0.441249
0.369878
0.45264
0.333592
0.346555
0.346564
0.442452
0.444511
0.454041
0.456445
0.333577
0.346564
0.346554
0.444561
0.442756
0.456505
0.454361
0.333626
0.346543
0.346546
0.441374
0.369509
0.452744
0.369361
0.333553
0.34654
0.346406
0.363674
0.332703
0.363097
0.345743
0.351028
0.364997
0.365157
0.350212
0.364126
0.36467
0.369503
0.351051
0.365163
0.365195
0.370431
0.456871
0.375018
0.470598
0.351065
0.365202
0.365205
0.45833
0.460859
0.472187
0.475018
0.351058
0.365205
0.365206
0.460923
0.458648
0.475101
0.472472
0.351034
0.365193
0.365163
0.45696
0.369945
0.470611
0.374668
0.350858
0.365156
0.364992
0.36381
0.350217
0.369339
0.364672
0.370133
0.385826
0.385884
0.369666
0.372683
0.385663
0.385698
0.370165
0.385888
0.38592
0.377698
0.475777
0.389298
0.494604
0.370163
0.385921
0.385903
0.477355
0.480225
0.495436
0.497281
0.370174
0.385903
0.385926
0.480316
0.477625
0.497395
0.495659
0.370135
0.385918
0.385887
0.475757
0.377394
0.494465
0.389106
0.369983
0.385883
0.385821
0.372565
0.369666
0.385685
0.385662
0.391421
0.409032
0.408983
0.391195
0.390946
0.408855
0.408403
0.391461
0.408995
0.409035
0.394265
0.501468
0.410802
0.520311
0.39144
0.409031
0.409001
0.502429
0.503473
0.521847
0.523792
0.391467
0.409
0.409037
0.503595
0.502641
0.523938
0.522048
0.391429
0.409033
0.408994
0.501289
0.394099
0.520028
0.410681
0.391362
0.408983
0.409028
0.390952
0.391194
0.408426
0.408853
0.415184
0.434966
0.434915
0.415129
0.41465
0.435056
0.434504
0.415233
0.434911
0.434937
0.416773
0.526516
0.435806
0.544377
0.415196
0.434928
0.434909
0.528038
0.529879
0.545786
0.546429
0.415233
0.434908
0.434934
0.53003
0.528245
0.546599
0.546013
0.415193
0.434935
0.43491
0.526205
0.416662
0.544016
0.435729
0.415207
0.434914
0.434963
0.414672
0.415127
0.434521
0.435056
0.441899
0.464335
0.464181
0.442091
0.439151
0.464536
0.466356
0.441903
0.464153
0.464122
0.43684
0.621701
0.465764
0.597964
0.441881
0.464119
0.464114
0.622379
0.61385
0.599532
0.589414
0.441899
0.464114
0.464125
0.614018
0.622073
0.589519
0.599831
0.441888
0.46412
0.464153
0.621513
0.43685
0.598419
0.465805
0.441955
0.46418
0.464332
0.439175
0.442093
0.466368
0.464534
0.472105
0.497762
0.497526
0.472501
0.47034
0.498019
0.499976
0.472009
0.497439
0.497271
0.469873
0.594277
0.49985
0.555911
0.471998
0.497252
0.497249
0.595816
0.58508
0.557116
0.546969
0.47201
0.497248
0.497257
0.585304
0.59616
0.547182
0.557834
0.472057
0.497269
0.497439
0.594838
0.469928
0.557078
0.499884
0.472269
0.497526
0.497771
0.470347
0.472501
0.499984
0.498038
0.506624
0.536466
0.536116
0.507106
0.504481
0.536361
0.538587
0.506287
0.535896
0.535391
0.504393
0.550916
0.53843
0.539934
0.506296
0.535385
0.535525
0.552064
0.54283
0.540053
0.540828
0.506277
0.535525
0.535385
0.543023
0.552817
0.540826
0.540082
0.506515
0.535385
0.535893
0.552063
0.504415
0.539969
0.538426
0.506909
0.536097
0.536401
0.504489
0.507125
0.538582
0.536352
0.546728
0.581077
0.580976
0.546819
0.543835
0.580923
0.583584
0.545894
0.580862
0.580358
0.543701
0.542283
0.583502
0.5844
0.545945
0.580269
0.57983
0.542364
0.543333
0.584388
0.584932
0.545868
0.579887
0.580117
0.543329
0.542363
0.584928
0.584376
0.54651
0.580331
0.58086
0.542282
0.543699
0.584345
0.583026
0.546933
0.580959
0.581048
0.543829
0.5468
0.583079
0.580899
0.593229
0.633194
0.632994
0.593235
0.589675
0.633071
0.636599
0.592773
0.632944
0.632776
0.589635
0.587568
0.636631
0.638312
0.592278
0.632666
0.6325
0.587602
0.588056
0.638343
0.638244
0.592571
0.632476
0.632706
0.588052
0.58758
0.638237
0.63832
0.593156
0.632787
0.632945
0.587547
0.589082
0.638309
0.636633
0.593321
0.632994
0.633194
0.589163
0.59323
0.6366
0.63307
0.647426
0.695555
0.695841
0.647568
0.643901
0.695661
0.700338
0.647411
0.696104
0.696921
0.643959
0.641867
0.700355
0.704543
0.647148
0.696983
0.696848
0.641893
0.642062
0.704636
0.705361
0.647509
0.696813
0.696971
0.642055
0.641887
0.70535
0.704635
0.647379
0.696918
0.696104
0.641868
0.643961
0.704546
0.700357
0.647676
0.695841
0.695554
0.643902
0.647566
0.700339
0.695661
0.713731
0.770915
0.771989
0.713026
0.709161
0.771299
0.778171
0.715005
0.772218
0.77273
0.709209
0.708956
0.77831
0.780422
0.715035
0.772821
0.772988
0.709007
0.70966
0.780547
0.781739
0.71508
0.772989
0.77282
0.709652
0.709006
0.781739
0.780548
0.714092
0.772728
0.772217
0.708959
0.709211
0.780423
0.778265
0.712945
0.771989
0.770924
0.709162
0.713026
0.778095
0.771297
0.793211
0.863527
0.864653
0.792738
0.788765
0.864008
0.87257
0.794058
0.865012
0.866344
0.788965
0.791279
0.87285
0.874175
0.794358
0.866632
0.866921
0.791406
0.792548
0.874326
0.875785
0.79419
0.866931
0.866632
0.792548
0.791407
0.875785
0.874326
0.793454
0.866344
0.865012
0.79128
0.788935
0.874175
0.872851
0.79241
0.864652
0.863527
0.788703
0.792727
0.87257
0.864004
0.891251
0.980542
0.981791
0.890606
0.892572
0.98038
0.982026
0.893303
0.982203
0.983374
0.893056
0.894304
0.982523
0.984088
0.893702
0.983632
0.983915
0.894783
0.895933
0.984856
0.986061
0.893556
0.983963
0.983632
0.895933
0.894783
0.986061
0.984856
0.891671
0.983374
0.982204
0.894304
0.893056
0.984088
0.982523
0.89005
0.981792
0.980542
0.892572
0.890605
0.982026
0.98038
1.01582
1.132
1.13241
1.01427
1.01589
1.13109
1.13277
1.01736
1.13253
1.13312
1.0164
1.01816
1.13334
1.13416
1.01796
1.13341
1.13374
1.01884
1.01958
1.13427
1.13444
1.01768
1.13374
1.13341
1.01958
1.01884
1.13444
1.13427
1.01621
1.13312
1.13253
1.01816
1.0164
1.13416
1.13334
1.01466
1.13241
1.132
1.01589
1.01427
1.13277
1.13109
1.17664
1.30555
1.30573
1.1761
1.17763
1.30579
1.30623
1.1774
1.30592
1.30625
1.17796
1.17834
1.30649
1.30663
1.17793
1.30645
1.30651
1.1784
1.17853
1.30677
1.30683
1.17763
1.30652
1.30645
1.17853
1.1784
1.30683
1.30677
1.17679
1.30625
1.30592
1.17834
1.17796
1.30663
1.30649
1.17641
1.30573
1.30555
1.17763
1.1761
1.30623
1.30579
0.36351
0.346025
0.363079
0.333127
0.362532
0.346079
0.362217
0.477731
0.372831
0.496759
0.375333
0.481145
0.376151
0.500647
0.477333
0.497364
0.496282
0.499702
0.757783
0.520559
0.879788
0.47827
0.49635
0.497343
0.75974
0.49975
0.882407
0.520633
0.372237
0.496452
0.372617
0.481176
0.375118
0.500679
0.375992
0.33292
0.363018
0.346026
0.362167
0.333134
0.361897
0.346084
0.363795
0.364785
0.369194
0.350554
0.362976
0.364812
0.368566
0.503507
0.378204
0.524594
0.376989
0.507594
0.38205
0.529422
0.503007
0.525368
0.524047
0.527902
0.922205
0.551376
1.05754
0.504118
0.524143
0.525353
0.925128
0.527989
1.06187
0.55151
0.373317
0.524243
0.378132
0.507627
0.37686
0.529462
0.382022
0.350498
0.369151
0.364784
0.362685
0.350558
0.368392
0.364814
0.372357
0.385663
0.385353
0.36977
0.371799
0.385653
0.384967
0.532011
0.392413
0.555112
0.384882
0.537117
0.396322
0.561049
0.531428
0.5562
0.554093
0.559805
1.1048
0.586628
1.25864
0.532845
0.554256
0.556177
1.1098
0.559957
1.26633
0.586848
0.380909
0.554653
0.392446
0.537162
0.384883
0.561123
0.396377
0.369748
0.385341
0.385661
0.371663
0.369771
0.384917
0.385652
0.390609
0.408826
0.408092
0.391173
0.390261
0.408809
0.40782
0.563077
0.413079
0.586318
0.400944
0.569289
0.416224
0.593615
0.561859
0.588176
0.584617
0.596017
1.314
0.624285
1.4985
0.564287
0.584881
0.588143
1.32271
0.596263
1.51007
0.624626
0.397228
0.585638
0.413139
0.569376
0.401002
0.593755
0.41627
0.391185
0.408087
0.408824
0.390226
0.391172
0.407804
0.408808
0.414351
0.434986
0.434271
0.415041
0.414099
0.434883
0.434081
0.593983
0.437125
0.615238
0.421728
0.601693
0.43925
0.624274
0.592094
0.61788
0.612628
0.633765
1.5677
0.660961
1.8166
0.596046
0.612791
0.618061
1.5799
0.634142
1.82876
0.661547
0.418877
0.614006
0.437196
0.601853
0.421767
0.624508
0.439263
0.415076
0.434263
0.434985
0.414083
0.41504
0.434064
0.434883
0.43904
0.464596
0.466406
0.441927
0.438532
0.464504
0.466021
0.62119
0.465895
0.606562
0.435818
0.634456
0.46468
0.62275
0.611493
0.607501
0.594858
0.651058
2.69678
0.643753
3.71135
0.621061
0.595253
0.607009
2.69729
0.651763
3.66381
0.644606
0.43611
0.604824
0.465897
0.634795
0.435789
0.623126
0.464651
0.442035
0.466411
0.464596
0.438504
0.441928
0.466006
0.464505
0.470386
0.498085
0.500026
0.472531
0.470046
0.498154
0.49986
0.602724
0.499925
0.562024
0.468814
0.61928
0.499452
0.580286
0.590348
0.561852
0.549745
0.64071
3.85889
0.60222
5.22204
0.603183
0.550194
0.561454
3.79219
0.64159
4.90388
0.603139
0.469956
0.559775
0.499924
0.619657
0.468786
0.580504
0.499427
0.47257
0.500025
0.498087
0.470031
0.472533
0.499846
0.498156
0.504529
0.536344
0.538567
0.507213
0.504378
0.536352
0.53852
0.556513
0.538406
0.540211
0.504053
0.574866
0.538501
0.557809
0.545425
0.540339
0.54172
0.596509
5.66285
0.565541
18.9075
0.555843
0.541721
0.540326
5.28631
0.597458
18.1359
0.566821
0.504452
0.540184
0.538392
0.575023
0.504028
0.557501
0.53849
0.507151
0.53856
0.536344
0.504366
0.507215
0.538514
0.536354
0.543824
0.580921
0.583364
0.546832
0.543763
0.580897
0.583142
0.542515
0.583307
0.584424
0.543711
0.559848
0.583149
0.603892
0.544212
0.584444
0.585615
0.567583
21.068
0.612679
58.9568
0.542585
0.585613
0.584429
20.3587
0.569044
59.6249
0.613731
0.543664
0.584389
0.583023
0.559588
0.543701
0.604502
0.583153
0.546798
0.583078
0.580918
0.543757
0.546834
0.583145
0.580898
0.589483
0.633065
0.636423
0.593176
0.589361
0.633011
0.636346
0.587688
0.636478
0.63836
0.589295
0.606702
0.636392
0.65
0.588633
0.638425
0.638703
0.615517
60.2671
0.655398
44.3243
0.58772
0.638693
0.638302
59.6339
0.616522
42.5248
0.655424
0.589069
0.638328
0.636479
0.607299
0.5893
0.650032
0.636386
0.593244
0.636422
0.633052
0.589366
0.593177
0.636342
0.632982
0.643679
0.695745
0.700372
0.647527
0.643569
0.696223
0.701738
0.641932
0.700482
0.704608
0.643608
0.653055
0.701919
0.707373
0.642564
0.704652
0.705476
0.658195
0.707955
0.73809
0.641943
0.705461
0.704651
0.658212
0.73809
0.707956
0.643757
0.70461
0.700482
0.653079
0.643604
0.707374
0.701933
0.647537
0.70037
0.695747
0.643573
0.647465
0.701775
0.696232
0.70918
0.771447
0.778273
0.713955
0.710575
0.771434
0.779134
0.709129
0.778421
0.780718
0.71071
0.711706
0.779483
0.781041
0.709762
0.780861
0.782076
0.71207
0.731342
0.781409
0.78351
0.709089
0.782076
0.780862
0.731342
0.712071
0.78351
0.781409
0.709335
0.780719
0.778322
0.711709
0.710713
0.781042
0.779503
0.713183
0.778144
0.771441
0.710583
0.713958
0.779152
0.771426
0.78891
0.864161
0.872605
0.792624
0.789939
0.864093
0.872604
0.791425
0.872857
0.8742
0.79019
0.791683
0.872838
0.875114
0.792788
0.874379
0.876159
0.792155
0.794084
0.875646
0.876932
0.791561
0.876159
0.874379
0.794084
0.792155
0.876932
0.875646
0.789073
0.8742
0.872857
0.791683
0.790196
0.875114
0.872838
0.792792
0.872605
0.864138
0.789945
0.792595
0.872604
0.864081
0.8926
0.980271
0.981957
0.890661
0.89257
0.980018
0.981898
0.894463
0.982471
0.984478
0.893039
0.89518
0.98266
0.985046
0.896424
0.985149
0.986239
0.895926
0.897018
0.985548
0.986501
0.894997
0.986238
0.985149
0.897018
0.895926
0.986501
0.985548
0.893072
0.984478
0.982471
0.89518
0.893039
0.985046
0.98266
0.890714
0.981957
0.980271
0.89257
0.890657
0.981898
0.980018
1.01578
1.13095
1.13298
1.01371
1.0158
1.13061
1.13333
1.01848
1.13353
1.13437
1.01667
1.01887
1.13387
1.13458
1.01975
1.13444
1.13454
1.01938
1.01998
1.13463
1.13471
1.01907
1.13454
1.13444
1.01998
1.01938
1.13471
1.13463
1.01637
1.13437
1.13353
1.01887
1.01667
1.13458
1.13387
1.01407
1.13298
1.13095
1.0158
1.01371
1.13333
1.13061
1.17787
1.30615
1.30655
1.1759
1.17817
1.30623
1.30671
1.17848
1.30675
1.30687
1.1784
1.17865
1.30685
1.30695
1.17861
1.30694
1.30697
1.1787
1.17877
1.30701
1.30705
1.17854
1.30697
1.30694
1.17877
1.1787
1.30705
1.30701
1.17809
1.30687
1.30675
1.17865
1.1784
1.30695
1.30685
1.17615
1.30655
1.30615
1.17817
1.1759
1.30671
1.30622
0.36215
0.346083
0.361887
0.332921
0.363177
0.346028
0.362825
0.48114
0.375976
0.50064
0.372138
0.477156
0.372541
0.496135
0.759852
0.52055
0.882546
0.47802
0.477401
0.497042
0.496353
0.499738
0.883163
0.520615
0.4768
0.477743
0.495674
0.496745
0.375468
0.500729
0.376302
0.477745
0.372253
0.496781
0.372663
0.333127
0.362326
0.346078
0.363547
0.332904
0.363094
0.346029
0.362678
0.364815
0.368396
0.3505
0.363569
0.364785
0.369069
0.507587
0.381947
0.529413
0.373253
0.502862
0.378116
0.523864
0.92543
0.55138
1.06358
0.503796
0.503079
0.524958
0.524141
0.52797
1.06549
0.551487
0.502371
0.50349
0.523331
0.524615
0.377144
0.529521
0.382205
0.50353
0.373373
0.524623
0.378217
0.350552
0.368593
0.36481
0.363802
0.3505
0.369178
0.364783
0.371669
0.385654
0.384927
0.369749
0.372264
0.385661
0.385327
0.537106
0.396296
0.561033
0.380908
0.53124
0.392486
0.554143
1.11236
0.586659
1.27365
0.532421
0.531539
0.555634
0.554295
0.559932
1.27869
0.586813
0.530683
0.532061
0.553248
0.555192
0.385034
0.561201
0.396454
0.532041
0.38101
0.555143
0.392674
0.369767
0.384953
0.385649
0.372335
0.369747
0.38532
0.38566
0.390236
0.40881
0.407815
0.391186
0.390593
0.408824
0.408085
0.569269
0.416219
0.593592
0.397277
0.562018
0.413209
0.584916
1.33254
0.624361
1.53234
0.563689
0.562106
0.587333
0.585038
0.596224
1.54176
0.624579
0.560974
0.56321
0.583594
0.586695
0.401066
0.593868
0.416316
0.563109
0.397449
0.586348
0.413323
0.39117
0.407799
0.408806
0.390573
0.391183
0.408049
0.408823
0.414095
0.434884
0.434078
0.415076
0.414343
0.434989
0.434261
0.60167
0.439213
0.624263
0.418951
0.592451
0.437266
0.613251
1.60816
0.660987
1.88411
0.595153
0.592582
0.61688
0.613374
0.634096
1.89798
0.66158
0.591025
0.594448
0.611532
0.615938
0.421811
0.624475
0.439303
0.594011
0.419045
0.615262
0.437279
0.415038
0.434062
0.434881
0.414306
0.415074
0.434244
0.434995
0.438525
0.464505
0.466022
0.442034
0.43902
0.464594
0.466425
0.634472
0.464671
0.622726
0.436102
0.620346
0.465904
0.604978
2.86479
0.644386
3.95396
0.621299
0.61295
0.60745
0.595468
0.651857
3.96701
0.644754
0.611643
0.619685
0.594336
0.605604
0.435784
0.623405
0.464648
0.62102
0.435993
0.607111
0.465891
0.441926
0.466002
0.464503
0.438936
0.44204
0.466404
0.464593
0.470047
0.498155
0.499862
0.472568
0.470404
0.498083
0.500033
0.619254
0.499448
0.580258
0.469963
0.601083
0.499934
0.560571
4.09754
0.602878
5.34593
0.603678
0.590995
0.562816
0.551188
0.641745
5.26018
0.603277
0.589967
0.601769
0.550497
0.56161
0.468783
0.580769
0.499423
0.603329
0.469948
0.562673
0.499925
0.47253
0.499844
0.498154
0.470385
0.472567
0.500024
0.498082
0.50438
0.536353
0.538522
0.507147
0.504536
0.53634
0.538564
0.574835
0.538502
0.557758
0.504462
0.555122
0.538401
0.540316
5.76831
0.565604
19.1259
0.557303
0.546765
0.540407
0.54169
0.597597
18.8255
0.567136
0.546121
0.556028
0.54171
0.540342
0.504025
0.557494
0.538486
0.557141
0.504455
0.54022
0.538408
0.507213
0.538511
0.536352
0.504527
0.507147
0.538566
0.536342
0.543764
0.580897
0.583144
0.546794
0.543828
0.580914
0.583079
0.559795
0.58315
0.603881
0.543673
0.542565
0.583029
0.584768
21.2789
0.612647
58.8255
0.542647
0.544136
0.584754
0.585589
0.56938
59.7342
0.613699
0.544178
0.542622
0.585588
0.584332
0.543698
0.604477
0.583149
0.542517
0.543671
0.584305
0.583312
0.546832
0.583143
0.580897
0.543823
0.546796
0.583361
0.580917
0.589363
0.632985
0.636339
0.59324
0.589158
0.633048
0.636421
0.606695
0.636382
0.650061
0.589075
0.587775
0.636485
0.638366
60.5304
0.655409
45.1681
0.587819
0.588603
0.638438
0.638693
0.616493
43.4584
0.655451
0.588606
0.587573
0.638701
0.638293
0.589296
0.650053
0.636384
0.587523
0.589474
0.638332
0.636489
0.593176
0.636338
0.632982
0.589483
0.593241
0.636425
0.633048
0.643569
0.696232
0.701773
0.647533
0.643677
0.695742
0.70037
0.653118
0.701929
0.707429
0.643764
0.641937
0.700492
0.704593
0.707982
0.738096
0.641991
0.642555
0.704665
0.705463
0.658241
0.738096
0.707974
0.642563
0.641961
0.705471
0.7047
0.643603
0.707393
0.701918
0.641936
0.643767
0.704666
0.700497
0.647467
0.701739
0.696224
0.643681
0.647533
0.700375
0.695743
0.710581
0.771426
0.779151
0.713178
0.709178
0.771436
0.778147
0.711737
0.779499
0.781086
0.709346
0.709135
0.77834
0.78071
0.731348
0.781448
0.783556
0.709108
0.709748
0.780852
0.781472
0.712089
0.783556
0.781448
0.709757
0.709142
0.781473
0.78088
0.710709
0.781087
0.77948
0.709207
0.709351
0.780745
0.77844
0.713955
0.779133
0.771434
0.709183
0.713179
0.778277
0.771443
0.789943
0.864081
0.872603
0.792787
0.788804
0.864133
0.872614
0.79174
0.872833
0.875167
0.789091
0.791446
0.872894
0.874224
0.794127
0.875688
0.877
0.791574
0.792136
0.874394
0.876076
0.792212
0.877
0.875688
0.792136
0.791578
0.876076
0.874394
0.790186
0.875167
0.872833
0.79145
0.789173
0.874224
0.872894
0.792624
0.872603
0.864093
0.788913
0.792817
0.872614
0.864155
0.89257
0.980018
0.981898
0.890708
0.892604
0.980263
0.981957
0.89517
0.98266
0.985046
0.893092
0.894414
0.98247
0.984446
0.897104
0.985548
0.986501
0.894859
0.896348
0.985071
0.986205
0.895951
0.986501
0.985548
0.896349
0.894859
0.986205
0.985071
0.893039
0.985047
0.98266
0.894414
0.893092
0.984446
0.98247
0.890661
0.981898
0.980018
0.892604
0.890715
0.981957
0.980263
1.0158
1.13061
1.13333
1.01406
1.01578
1.13092
1.13298
1.01887
1.13387
1.13458
1.01637
1.01848
1.13353
1.13437
1.01998
1.13463
1.13471
1.01906
1.01973
1.13444
1.13454
1.01938
1.13471
1.13463
1.01973
1.01906
1.13454
1.13444
1.01667
1.13458
1.13387
1.01848
1.01637
1.13437
1.13353
1.01371
1.13333
1.13061
1.01578
1.01406
1.13298
1.13092
1.17817
1.30622
1.30671
1.17616
1.17787
1.30615
1.30655
1.17865
1.30685
1.30695
1.17809
1.17848
1.30675
1.30687
1.17877
1.30701
1.30705
1.17853
1.17861
1.30694
1.30697
1.1787
1.30705
1.30701
1.17861
1.17853
1.30697
1.30694
1.1784
1.30695
1.30685
1.17848
1.17809
1.30687
1.30675
1.1759
1.30671
1.30622
1.17787
1.17616
1.30655
1.30615
0.363485
0.34575
0.362932
0.333518
0.33362
0.34638
0.346537
0.441333
0.369413
0.452749
0.333621
0.333572
0.346544
0.346548
0.44485
0.454727
0.456834
0.333576
0.333597
0.34656
0.346572
0.44228
0.456573
0.453893
0.333598
0.33359
0.346573
0.346562
0.369896
0.452528
0.369712
0.333589
0.333625
0.346554
0.346546
0.332706
0.363718
0.345737
0.333628
0.333538