/*--------------------------------*- C++ -*----------------------------------*\
| =========                 |                                                 |
| \\      /  F ield         | OpenFOAM: The Open Source CFD Toolbox           |
|  \\    /   O peration     | Version:  2206                                  |
|   \\  /    A nd           | Website:  www.openfoam.com                      |
|    \\/     M anipulation  |                                                 |
\*---------------------------------------------------------------------------*/
FoamFile
{
    version     2.0;
    format      ascii;
    arch        "LSB;label=32;scalar=64";
    class       volScalarField;
    location    "400";
    object      p;
}
// * * * * * * * * * * * * * * * * * * * * * * * * * * * * * * * * * * * * * //

dimensions      [0 2 -2 0 0 0 0];

internalField   nonuniform List<scalar> 
198968
(
-0.0114134
0.00532205
0.0076006
0.0164686
0.0167335
0.00765819
0.00558659
-0.0112058
-0.0597365
-0.0166284
-0.0164986
-0.0133796
-0.00836682
-0.00553462
-0.0105529
-0.059231
-0.0226628
-0.0171157
-0.0128136
-0.00614294
0.000384299
0.00517944
0.00589792
-0.00022793
-0.025776
-0.0207145
-0.011016
-0.000712242
0.00793987
0.0137388
0.0149827
0.00973206
-0.0373001
-0.0277748
-0.0123127
0.00229319
0.0133058
0.0198367
0.0214718
0.0154016
-0.0563037
-0.0393765
-0.0162441
0.00324293
0.0161087
0.023157
0.0248431
0.0191582
-0.0852089
-0.0575522
-0.0252648
-0.000724653
0.0132441
0.0201652
0.0223316
0.0180738
-0.120465
-0.083956
-0.0424463
-0.0137741
0.000142635
0.00563918
0.00852262
0.0108381
-0.167969
-0.127303
-0.0838337
-0.0556976
-0.0434792
-0.0401286
-0.0323994
-0.012891
-0.239556
-0.208885
-0.182613
-0.169202
-0.164161
-0.157276
-0.129999
-0.0710422
-0.310465
-0.31125
-0.334554
-0.358701
-0.36702
-0.347193
-0.282421
-0.161961
-0.331368
-0.394101
-0.493136
-0.574375
-0.60076
-0.558394
-0.445862
-0.258047
-0.24823
-0.3745
-0.540731
-0.671458
-0.713289
-0.652124
-0.509375
-0.298625
-0.0565064
-0.197773
-0.355895
-0.472949
-0.512529
-0.469709
-0.368507
-0.227715
0.166644
0.0765827
-0.00454261
-0.0565349
-0.0792266
-0.0834263
-0.0759528
-0.0604584
0.326844
0.301348
0.297392
0.30575
0.298751
0.259966
0.19011
0.0958893
0.389483
0.40068
0.441544
0.47877
0.481004
0.432248
0.332575
0.184945
0.363473
0.398609
0.457493
0.504425
0.511756
0.467576
0.370077
0.214579
0.308858
0.33624
0.403747
0.45259
0.462206
0.426929
0.348142
0.220999
0.169766
0.260689
0.3285
0.373651
0.382903
0.354928
0.294676
0.169825
-0.00434051
-0.0052315
-0.00731887
-0.00916646
-0.0102998
-0.00799331
-0.00375862
-0.000503155
-0.00710704
-0.0127799
-0.0156352
-0.0165791
-0.0171154
-0.00879115
-0.0016834
0.000330878
-0.00726852
-0.0119481
-0.01111
-0.00942943
-0.00735369
-0.000499097
0.00467309
0.00622137
-0.00605432
-0.00462679
0.00187103
0.00758377
0.0117408
0.01568
0.0153628
0.011164
-0.0119359
-0.0046098
0.00800702
0.0172947
0.0234351
0.0265896
0.0248195
0.0178592
-0.0272357
-0.00705776
0.0156532
0.0304711
0.0381664
0.040335
0.0354542
0.0240694
-0.0604993
-0.0108295
0.0291343
0.0534617
0.0628298
0.0620505
0.049567
0.0266159
-0.118484
-0.0346819
0.0254824
0.0488439
0.0544076
0.0556395
0.0473893
0.0233377
-0.115234
-0.0250639
0.0665546
0.130451
0.149725
0.123794
0.0755326
0.039457
-0.196671
-0.11207
-0.0217541
0.046712
0.0662538
0.0330783
-0.0106868
-0.0199041
-0.337089
-0.300684
-0.271199
-0.245447
-0.237506
-0.25061
-0.237693
-0.156255
-0.475229
-0.558099
-0.685939
-0.780116
-0.80417
-0.743154
-0.601172
-0.356286
-0.485764
-0.729795
-1.06958
-1.35601
-1.4305
-1.2507
-0.913429
-0.51195
-0.268854
-0.557107
-0.913542
-1.2134
-1.2927
-1.11135
-0.794006
-0.446219
0.0895057
-0.0715805
-0.202395
-0.271199
-0.2887
-0.2757
-0.222989
-0.14323
0.377832
0.355768
0.414883
0.490375
0.505499
0.423376
0.288257
0.144362
0.501906
0.541151
0.652964
0.7585
0.779483
0.687289
0.512333
0.279151
0.480788
0.545544
0.657459
0.746393
0.763224
0.688858
0.533508
0.295965
0.388572
0.463262
0.565727
0.640695
0.655346
0.598909
0.472494
0.269255
0.277285
0.367858
0.4736
0.541829
0.55563
0.511044
0.409944
0.250508
-0.00606572
-0.00909443
-0.0102349
-0.00966882
-0.0105391
-0.00649035
-0.000339249
0.00256723
-0.00985606
-0.0151348
-0.0156362
-0.00911473
-0.023874
-0.00454758
0.0129502
0.0125847
0.00994857
-0.0588842
-0.0486346
-0.0584192
-0.0860569
-0.0462303
0.00870074
0.0654505
0.034382
0.0204746
0.0411117
0.0602078
0.0682602
0.0643024
0.0466076
0.0354773
0.0410055
0.0327465
0.05366
0.0690271
0.0766895
0.0758679
0.0637041
0.0450256
0.0244898
0.0455378
0.0802006
0.103475
0.113621
0.111165
0.0911963
0.051847
0.0172203
0.075739
0.127627
0.172903
0.18592
0.179974
0.140504
0.0498099
-0.65092
0.0754326
0.196984
0.28664
0.302917
0.285084
0.231015
0.00422638
-0.140114
0.0837514
0.320161
0.476188
0.52119
0.45208
0.307781
0.170001
-0.265089
0.0233423
0.323152
0.544387
0.620063
0.500436
0.292381
0.141463
-0.524973
-0.229566
0.0254376
0.260852
0.353335
0.205636
-0.00508088
-0.0645272
-0.827366
-0.741154
-0.81732
-0.799715
-0.771691
-0.811683
-0.785731
-0.516352
-0.948876
-1.31588
-2.10343
-2.85262
-3.11351
-2.69381
-1.89666
-1.05657
-0.569676
-1.26531
-2.38708
-3.61966
-4.15348
-3.32174
-2.10289
-1.10077
0.113383
-0.33221
-0.644183
-0.699458
-0.680659
-0.69561
-0.6146
-0.405081
0.658238
0.513165
0.784001
1.24065
1.44559
1.13299
0.672599
0.316089
1.03183
0.752199
1.12927
1.50001
1.63084
1.41905
1.02117
0.657621
0.692012
0.786783
1.02811
1.255
1.33457
1.20419
0.941138
0.516372
0.55812
0.635797
0.807627
0.958773
1.00909
0.929457
0.755516
0.410616
0.396142
0.521026
0.678783
0.782665
0.804222
0.736666
0.587022
0.354688
-0.0022477
-0.00629915
-0.00834477
0.0086408
0.010743
0.0115692
0.00431581
0.00439525
0.00648508
0.00143471
-0.00115461
0.0118413
0.0259349
-0.00484466
0.0283761
0.0160462
0.0340117
-0.00796477
0.0688342
0.220841
-0.586607
0.212945
-0.00201774
0.0594478
0.0611553
0.0510942
0.0946296
0.0896473
0.0884611
0.0905818
0.0704468
0.0494984
0.0746339
0.0661446
0.0867717
0.100983
0.109485
0.109152
0.0925947
0.0657919
0.064488
0.0922911
0.134215
0.164773
0.175901
0.169665
0.140032
0.0786432
0.0902587
0.155742
0.224904
0.293644
0.296005
0.285581
0.230056
0.0959731
-0.813567
0.166275
0.374251
0.546456
0.494898
0.506689
0.413897
0.0399837
-0.132276
0.187737
0.669571
1.11727
1.12803
1.00648
0.622223
0.321354
-0.279123
0.221322
0.878183
1.59359
1.90249
1.50466
0.830126
0.386701
-0.637134
-0.0787795
0.799479
2.11927
2.95342
1.93023
0.691581
0.174877
-1.2104
-0.94514
-0.39313
1.11069
2.40045
0.95653
-0.489709
-0.59428
-1.59757
-2.40233
-3.8341
-4.65364
-3.70676
-4.59183
-3.5934
-1.87489
-1.05173
-2.67115
-6.35075
-14.1894
-21.7485
-13.4398
-5.69089
-2.21747
0.229108
-0.372521
-0.83655
0.588805
3.41449
0.484526
-0.869824
-0.592614
1.09146
1.26886
2.44715
5.43677
7.3161
5.04032
2.18543
0.75887
1.53964
1.34816
2.3685
3.51167
3.96605
3.24371
2.07973
1.12117
0.938497
1.16172
1.62335
2.0769
2.23429
1.97637
1.46557
0.750427
0.711083
0.856509
1.11696
1.34878
1.42127
1.30311
1.03754
0.547995
0.493869
0.65472
0.860753
0.997712
1.02654
0.937383
0.74287
0.446041
-0.00247922
-0.0141659
-0.022992
0.0108524
-0.00140306
0.0609662
0.0318834
0.0144507
0.00983424
-0.0150173
-0.0773112
-0.0369734
0.015792
0.163973
0.103668
0.0342069
0.041707
-0.00274721
-0.072837
-0.773871
1.00289
0.402111
0.028373
0.067826
0.0680109
0.0675547
0.0995453
0.033591
-0.47995
0.0635308
0.077223
0.053447
0.0831594
0.0866953
0.109459
0.130257
0.129424
0.138502
0.116449
0.0712881
0.0762026
0.120727
0.176139
0.228803
0.253955
0.24131
0.182901
0.0860534
0.110832
0.197802
0.300686
0.439035
0.508547
0.436627
0.304316
0.106751
-0.836962
0.217113
0.513609
0.945073
1.34707
0.843505
0.540405
0.0742955
-0.112949
0.267501
0.879349
1.63844
-10.4437
1.29576
0.807745
0.392119
-0.266151
0.352678
1.33331
2.70297
4.31443
2.56381
1.24458
0.510371
-0.647919
0.0724282
1.64552
6.10675
15.2162
5.27592
1.42678
0.3168
-1.34474
-0.91327
0.449096
5.3256
29.4897
4.4724
0.199008
-0.567103
-1.89745
-2.92619
-4.63395
4.42129
90.7466
3.01399
-4.39943
-2.26674
-1.28939
-3.55707
-11.0867
-51.946
-45.5759
-9.43312
-2.85679
0.290038
-0.276898
0.283162
18.5458
134.787
15.6697
-0.0881444
-0.582669
1.29835
1.70539
4.25557
11.4656
17.3673
10.3131
3.71455
1.03936
1.73711
1.63145
3.02139
4.74269
5.42047
4.33144
2.61308
1.34243
1.00346
1.31854
1.88775
2.46029
2.65613
2.33715
1.69112
0.813033
0.747181
0.94121
1.23642
1.50259
1.58704
1.44975
1.14664
0.582254
0.516476
0.686477
0.904366
1.0498
1.0805
0.985772
0.78001
0.467638
0.00424197
-0.00067481
-0.0056224
0.00845445
0.0394154
0.0357956
0.02251
0.0101089
0.0176353
0.0163195
0.00531571
0.00953673
0.0864107
0.0977816
0.0631547
0.0277405
0.0376009
0.000497163
0.106831
0.131315
0.310153
0.21839
0.0679473
0.0734511
0.058095
0.0636824
0.0703442
0.0301747
0.0297668
0.03658
0.0642225
0.0487868
0.0690294
0.0854833
0.112518
0.138237
0.15491
0.144617
0.110732
0.0606134
0.0562517
0.11513
0.171955
0.22891
0.258489
0.235351
0.168981
0.0725023
0.0749301
0.175165
0.268677
0.386985
0.438685
0.383875
0.260176
0.0869907
-0.749312
0.175072
0.398018
0.667355
0.783274
0.618984
0.416121
0.0375401
-0.117355
0.162724
0.590244
0.700618
0.699977
0.628991
0.557061
0.283296
-0.261095
0.165738
0.809092
1.51958
1.85367
1.43795
0.761352
0.324827
-0.611971
-0.141306
0.655912
1.80366
2.51066
1.64687
0.569811
0.104203
-1.12623
-0.930505
-0.532098
0.788048
1.85532
0.656257
-0.560051
-0.587908
-1.44425
-2.12179
-3.55374
-4.6109
-4.16033
-4.49024
-3.31672
-1.65705
-0.941001
-2.25989
-5.54659
-12.7411
-18.8216
-12.0347
-4.98719
-1.89757
0.185682
-0.374917
-0.883327
0.246311
2.35061
0.122572
-0.900261
-0.55572
0.9672
1.06497
2.13258
4.56147
5.93674
4.24584
1.90412
0.629471
1.41138
1.19829
2.03944
2.93929
3.28384
2.73074
1.79797
0.996281
0.815927
1.0696
1.46988
1.85806
1.99867
1.76917
1.32358
0.634114
0.639105
0.807363
1.04123
1.25549
1.32151
1.21288
0.965206
0.480878
0.450088
0.593387
0.777117
0.89862
0.924037
0.845
0.671317
0.403993
0.00503741
0.00600794
0.00672855
0.0108363
0.0172419
0.0172569
0.0109717
0.00327107
0.015342
0.0238854
0.0303077
0.0407142
0.0594126
0.0534373
0.0335063
0.0100445
0.0322719
0.0348134
0.0477906
0.0416781
0.0485316
0.0610545
0.0523084
0.0261697
0.04455
0.052323
0.069312
0.0829317
0.0883664
0.0837327
0.0662106
0.0347579
0.0493809
0.0677596
0.100799
0.127867
0.137477
0.126425
0.0990946
0.0536864
0.0361531
0.07797
0.138812
0.185856
0.201215
0.182804
0.141151
0.0798416
0.000782518
0.0818407
0.182275
0.25659
0.278449
0.247928
0.189446
0.120747
-0.174052
0.0474527
0.275729
0.424648
0.466191
0.386241
0.260974
0.197431
-0.0169708
0.0950268
0.258364
0.394507
0.437865
0.374581
0.247869
0.14707
-0.0779235
0.0211515
0.210737
0.392255
0.456259
0.360136
0.191714
0.0439058
-0.291008
-0.207792
-0.0826797
0.0770119
0.142044
0.050985
-0.0913328
-0.175806
-0.57422
-0.642458
-0.772707
-0.809407
-0.79986
-0.79715
-0.72624
-0.565063
-0.725658
-1.09341
-1.70281
-2.26105
-2.44977
-2.12928
-1.53292
-0.948992
-0.513127
-1.04021
-1.82077
-2.62293
-2.94269
-2.43227
-1.61519
-0.894448
-0.0171287
-0.311894
-0.526437
-0.630086
-0.64794
-0.615093
-0.49821
-0.274416
0.418618
0.380502
0.607278
0.891815
1.01142
0.819015
0.523383
0.345441
0.569072
0.77426
0.95332
1.22207
1.32086
1.16601
0.866009
0.404943
0.537045
0.623143
0.780245
0.910847
0.939767
0.836248
0.633706
0.353219
0.443217
0.521418
0.64608
0.740354
0.759598
0.689728
0.539668
0.305463
0.329391
0.428679
0.550242
0.631114
0.647673
0.594317
0.475547
0.29057
-0.0094883
0.00755407
0.00976779
0.0185485
0.0183849
0.00994214
0.00727836
-0.00864765
-0.052019
0.0192301
0.0220778
0.0249689
0.0280164
0.0248124
0.0117176
-0.0491446
0.00974405
0.0192502
0.0247126
0.0280279
0.0299664
0.0285494
0.0201449
-0.00125035
0.023116
0.0270792
0.0349322
0.0415855
0.0444727
0.0420217
0.032535
0.0155058
0.0271065
0.0350268
0.0485448
0.0604586
0.0655259
0.0618546
0.049374
0.027325
0.0250085
0.040475
0.0649071
0.084982
0.0925548
0.0865714
0.0690332
0.0405585
0.0123467
0.042655
0.0835605
0.114083
0.124123
0.113387
0.0885768
0.0547956
-0.0119644
0.0397323
0.0945032
0.131412
0.142474
0.126186
0.092302
0.0592163
-0.0173599
0.0301755
0.0833912
0.121455
0.133518
0.116939
0.0823037
0.042933
-0.0838851
-0.0319535
0.0208048
0.0593065
0.0720478
0.0583997
0.0324283
0.0116981
-0.197102
-0.158235
-0.135203
-0.118638
-0.110795
-0.109626
-0.0994329
-0.0644203
-0.313886
-0.329507
-0.383882
-0.427595
-0.434504
-0.396628
-0.312385
-0.181854
-0.347119
-0.448401
-0.607592
-0.735614
-0.765769
-0.675925
-0.502871
-0.2822
-0.231469
-0.37959
-0.564052
-0.707911
-0.743076
-0.650415
-0.47539
-0.269109
-0.022022
-0.130521
-0.221709
-0.275486
-0.288907
-0.266356
-0.209033
-0.125197
0.160274
0.117845
0.115663
0.130738
0.131729
0.105251
0.0660367
0.0279291
0.253413
0.252808
0.28824
0.324955
0.329695
0.288811
0.212013
0.113822
0.265502
0.288007
0.333152
0.372864
0.379472
0.341436
0.262076
0.143993
0.247283
0.256104
0.310983
0.351833
0.359525
0.32931
0.262706
0.146137
0.170139
0.235817
0.294094
0.333954
0.342099
0.316204
0.260958
0.170206
0.0459186
0.0272822
0.0569062
0.066132
0.0674971
0.0817822
0.102716
0.0645649
0.0469404
0.0685431
0.073438
0.0416833
0.103436
0.13206
0.0685601
0.0614861
0.0693802
0.0347166
0.0352097
0.125794
0.140375
0.0606599
0.068909
0.0621405
0.0350453
0.0348641
0.140627
0.126203
0.0412058
0.0683391
0.047696
0.0416251
0.0739767
0.132577
0.104474
0.0216151
0.0570254
0.028274
0.0675775
0.0668779
0.10327
0.0832769
0.063519
0.0368077
0.0800625
0.0875303
0.113569
0.106458
0.154485
0.0760445
0.0684631
0.0971175
0.115593
0.149498
0.158291
0.214845
0.0772246
0.0888798
0.0989065
0.143193
0.161054
0.208751
0.2365
0.0698116
0.0982273
0.0897855
0.161468
0.143606
0.237299
0.209292
0.0545503
0.096882
0.0695185
0.150208
0.116734
0.216027
0.159921
0.0337732
0.0803618
0.0382166
0.114253
0.0891607
0.155664
0.108679
0.0907884
0.0551889
0.12185
0.117079
0.171003
0.152394
0.235434
0.111361
0.109669
0.155832
0.175493
0.241268
0.244456
0.346032
0.114329
0.147419
0.160265
0.235491
0.266643
0.345866
0.395242
0.104459
0.159561
0.148305
0.267639
0.236063
0.396822
0.346907
0.0813595
0.155615
0.110897
0.242638
0.177318
0.34808
0.24719
0.0469671
0.122433
0.0569069
0.172327
0.119423
0.237409
0.155082
0.139812
0.135096
0.199845
0.17663
0.262019
0.278346
0.37454
0.18017
0.167385
0.246389
0.27178
0.390834
0.362486
0.559719
0.186607
0.243205
0.2596
0.395117
0.449561
0.593351
0.69383
0.173763
0.259079
0.243616
0.451347
0.396518
0.696068
0.596638
0.128951
0.246168
0.168813
0.393173
0.27492
0.5633
0.367208
0.0773865
0.200617
0.135775
0.264253
0.179395
0.377254
0.279797
0.230153
0.0722328
0.290081
0.173418
0.414575
0.140369
0.525835
0.285524
0.290142
0.406045
0.396716
0.623258
0.510335
0.820904
0.303434
0.42373
0.456242
0.674031
0.796788
0.919586
1.05542
0.286641
0.456028
0.423729
0.798973
0.678276
1.05609
0.925208
0.198417
0.406119
0.291744
0.62735
0.40215
0.827311
0.51971
0.0770181
0.291688
0.0745919
0.417485
0.176504
0.53007
0.143548
0.306293
0.0511498
0.312849
0.160943
0.551714
0.182691
0.736627
0.451838
0.33989
0.50611
0.586869
0.627295
0.78209
1.34878
0.521232
0.544874
0.612866
0.686114
0.693222
1.42643
1.72285
0.476345
0.612822
0.544566
0.696112
0.697301
1.72834
1.43641
0.321457
0.505889
0.3402
0.636148
0.594122
1.35871
0.785894
0.0858676
0.313563
0.0528434
0.557925
0.163618
0.738973
0.187012
0.291805
-0.140668
0.108065
0.161307
0.753019
-0.0295726
0.633052
0.500823
0.142037
0.333613
0.80308
1.41295
0.718015
1.67471
0.620111
0.388626
0.480951
1.49861
1.82538
1.82733
2.47255
0.543881
0.48101
0.388173
1.82989
1.50475
2.47547
1.82587
0.323337
0.332795
0.141896
1.42142
0.806178
1.67263
0.716211
0.0249639
0.108001
-0.139666
0.753944
0.1654
0.632841
-0.0292496
-0.00447212
-0.589259
-0.540956
-0.143962
0.570288
-0.682462
-0.349539
0.206564
-0.546107
-0.469457
0.655629
1.64151
-0.307057
0.783394
0.353291
-0.440265
-0.388173
1.79894
2.49117
0.904225
1.95204
0.26098
-0.38852
-0.44147
2.49331
1.79778
1.94919
0.877004
0.0246552
-0.471227
-0.546704
1.63734
0.652993
0.756618
-0.311863
-0.227395
-0.540598
-0.587287
0.569837
-0.143454
-0.351339
-0.680639
-0.787681
-1.19368
-1.63701
-0.934146
-0.563108
-1.83722
-2.92679
-0.811633
-1.78498
-2.19248
-0.531708
0.681675
-3.10659
-3.93225
-0.771324
-2.28822
-2.42993
0.804998
1.89166
-3.93934
-3.24304
-0.798889
-2.43287
-2.27402
1.88878
0.786252
-3.24044
-3.8908
-0.816451
-2.18716
-1.77783
0.661914
-0.533362
-3.8806
-3.04054
-0.737392
-1.62993
-1.18733
-0.561956
-0.928658
-2.87372
-1.82332
-1.905
-1.37326
-2.23445
-2.12854
-3.35977
-2.45609
-5.16535
-2.69886
-2.5232
-3.51085
-3.59694
-4.56508
-5.71505
-12.1683
-3.10885
-3.81066
-4.35772
-4.62143
-4.20321
-12.8289
-18.8389
-2.84281
-4.35827
-3.79915
-4.20146
-4.57114
-18.836
-12.78
-2.09466
-3.50228
-2.51287
-4.52129
-3.53495
-12.1188
-5.68102
-1.30886
-2.22448
-1.36509
-3.3127
-2.11282
-5.13252
-2.43732
-2.11296
-0.597247
-1.06307
-2.26836
-5.03547
-0.912303
-1.53353
-3.33087
-1.15801
-1.45634
-5.5641
-12.1177
-1.56698
-0.727153
-4.14564
-1.5282
-1.65003
-12.7785
-18.8705
-0.577642
1.22536
-3.60332
-1.6528
-1.52298
-18.8675
-12.7282
1.22905
-0.545432
-2.37677
-1.44961
-1.1493
-12.0678
-5.53013
-0.694163
-1.54029
-1.2572
-1.05431
-0.590302
-5.00285
-2.24999
-1.50815
-0.896837
-0.622604
0.353942
0.444618
-0.381784
-0.93434
0.839261
1.74778
-0.702039
0.546957
0.858925
-0.896153
0.035491
1.99802
4.23277
-0.677895
0.965716
1.169
0.220285
2.31552
4.59873
6.25691
-0.694534
1.16945
0.969133
2.32074
0.250524
6.25767
4.60755
-0.636308
0.863135
0.552471
0.0665411
-0.871354
4.24251
2.00594
-0.325827
0.450801
0.357923
-0.910742
-0.367894
1.75339
0.848286
0.666831
0.749006
0.996854
1.06061
1.88722
1.25677
2.06769
1.12951
1.11067
1.42722
2.12864
4.22551
2.18962
3.23921
1.44507
1.52014
1.67381
4.55229
6.00742
3.35506
3.90511
1.24348
1.6742
1.52161
6.00813
4.56042
3.90532
3.35804
0.788846
1.42902
1.11292
4.23436
2.13726
3.24243
2.19365
0.517289
0.999342
0.751151
1.89298
1.06807
2.07171
1.26038
1.0192
0.810624
0.96722
1.19617
1.79181
1.13554
1.43769
1.41759
1.06252
1.25294
2.03631
2.72598
1.60579
1.96539
1.63067
1.3085
1.39486
2.94101
3.28447
2.07749
2.24826
1.50118
1.39472
1.3091
3.28482
2.94312
2.24843
2.07855
1.13113
1.25372
1.06352
2.72851
2.03945
1.96669
1.60747
0.753974
0.96827
0.81154
1.795
1.19914
1.43941
1.13706
0.940271
0.642019
0.777208
1.0683
1.32068
0.834154
1.02989
1.20357
0.838757
0.96769
1.46822
1.76653
1.12257
1.31525
1.33467
1.00084
1.05432
1.8574
1.99721
1.36744
1.44436
1.25547
1.05437
1.00109
1.99735
1.85824
1.44442
1.36786
1.02894
0.968022
0.839209
1.76756
1.46956
1.31577
1.12326
0.787543
0.777681
0.64243
1.32206
1.06951
1.0306
0.834771
0.755126
0.5788
0.632536
0.806468
0.963762
0.663105
0.730914
0.929185
0.742312
0.801621
1.04029
1.21143
0.858652
0.929734
1.00907
0.855816
0.879524
1.25451
1.32052
0.993741
1.02189
0.958978
0.87957
0.85593
1.32058
1.25484
1.02195
0.993898
0.808
0.801824
0.742557
1.21185
1.04085
0.929984
0.858955
0.636143
0.632801
0.579053
0.964338
0.806975
0.73124
0.663417
0.0698535
0.0604636
0.0851147
0.0689478
0.0796014
0.0812222
0.10734
0.0899555
0.0797981
0.100795
0.10172
0.0666514
0.100799
0.124169
0.08816
0.0926053
0.0992786
0.036053
-0.477535
0.115161
0.10972
0.0910068
0.0990992
0.0928011
-0.477588
0.039822
0.110304
0.11543
0.0950153
0.100882
0.0805979
0.0682156
0.102963
0.125215
0.102014
0.0519673
0.0853698
0.0619048
0.0801297
0.0706878
0.108383
0.0834066
0.09233
0.0820075
0.124868
0.0884872
0.119532
0.110856
0.166671
0.10926
0.11947
0.151407
0.11266
0.144427
0.159686
0.219102
0.109764
0.144359
0.155886
0.136021
0.135431
0.206787
0.22954
0.101308
0.15517
0.144905
0.136133
0.136258
0.230392
0.20645
0.0876042
0.151006
0.120673
0.145658
0.11397
0.221214
0.161393
0.067794
0.125172
0.0840974
0.120803
0.0909924
0.168647
0.11395
0.1397
0.128146
0.20153
0.122793
0.187062
0.167593
0.270866
0.170394
0.197959
0.250881
0.180786
0.251237
0.268155
0.387761
0.176859
0.253189
0.263816
0.237649
0.267277
0.38188
0.43588
0.165473
0.261888
0.254191
0.268482
0.23705
0.440229
0.380063
0.135424
0.249533
0.199492
0.253742
0.182659
0.392394
0.270767
0.0945668
0.201987
0.130608
0.18932
0.126264
0.274114
0.171414
0.22949
0.267168
0.359917
0.199561
0.308563
0.339824
0.475268
0.287216
0.327623
0.438062
0.306458
0.452219
0.454221
0.735926
0.298454
0.465869
0.443031
0.45416
0.531615
0.807217
1.06343
0.294883
0.438521
0.467104
0.53821
0.451751
1.08872
0.804417
0.226538
0.435489
0.32968
0.457924
0.309494
0.746379
0.459309
0.158319
0.360785
0.269165
0.312262
0.20373
0.480429
0.34338
0.412638
0.157599
0.584978
0.217007
0.540007
0.221505
0.740153
0.509426
0.587562
0.891193
0.517288
0.862249
0.695998
1.28953
0.500753
0.942229
0.589676
0.969579
1.3981
1.8096
8.07055
0.547619
0.57738
0.936072
1.43628
0.967192
8.44973
1.83944
0.376576
0.889973
0.591952
0.874453
0.523359
1.31609
0.697424
0.169609
0.589774
0.163144
0.545889
0.221958
0.748461
0.228458
0.618277
0.234424
0.808531
0.266561
0.799022
0.351168
1.1741
1.00819
0.8502
1.42938
0.877704
1.29301
1.25499
2.33692
1.12851
1.50569
1.77809
1.67783
-7.86658
2.46695
3.76889
1.11515
1.78289
1.49804
-7.74209
1.69142
3.78293
2.46664
0.672882
1.42622
0.849827
1.31113
0.883561
2.34937
1.25759
0.192314
0.80858
0.23733
0.807
0.27239
1.17898
0.353888
0.830507
0.0405882
0.756851
0.35232
1.23099
0.194469
1.44809
1.50892
0.855187
1.93599
1.32282
2.53751
1.6534
4.70933
1.90028
2.11666
2.86564
2.69182
4.28446
5.44206
11.8406
1.58479
2.87084
2.12214
4.28924
2.69552
11.8523
5.53271
0.877551
1.93559
0.850585
2.54865
1.3247
4.73269
1.64737
0.223629
0.752396
0.0404827
1.23528
0.353963
1.44451
0.193015
0.697754
-0.664
-0.258218
0.07231
1.4209
-0.577134
0.460118
1.92952
-0.160972
1.06531
1.63838
5.09453
0.682425
5.11367
2.94904
1.20142
2.45187
6.00543
14.4049
5.52293
30.1048
2.12491
2.44808
1.17438
14.4669
6.1219
30.8181
4.99317
0.793367
1.04101
-0.167645
5.13112
1.62953
4.66709
0.644629
-0.0794198
-0.263663
-0.662078
1.41463
0.0697744
0.437533
-0.575887
-0.487607
-2.02841
-3.12604
-0.913441
0.213953
-2.35969
-3.53172
0.968459
-3.24911
-3.93099
0.451148
4.98724
-3.52688
4.13745
2.40472
-3.88436
-2.70478
5.33752
27.3513
6.2424
87.0517
1.10168
-2.70182
-3.81994
28.0252
4.69218
86.521
7.13686
-0.39716
-3.8617
-3.18973
4.46507
0.423493
4.87547
-3.42241
-0.939454
-3.07864
-2.01087
0.19899
-0.906241
-3.45027
-2.33132
-3.64049
-2.88254
-5.86583
-2.92705
-4.48288
-3.82107
-9.6673
-4.65531
-6.50256
-13.5897
-4.63552
2.37486
-11.2565
-45.4445
-3.70939
-14.2661
-21.7438
4.40849
92.1368
-51.0429
-210.879
-4.59055
-21.7382
-14.2018
91.2761
5.14634
-208.76
-50.5808
-3.76905
-13.5294
-6.46287
2.99887
-4.53439
-45.048
-11.1731
-2.38223
-5.82744
-2.85923
-4.40106
-2.89573
-9.59143
-3.78371
-5.72945
-1.01547
-1.59075
-3.55785
-9.51239
-1.1862
-1.32301
-13.5032
-1.61707
-0.401786
-11.0926
-45.9937
-1.08765
13.9392
-21.7531
-0.272659
2.22923
-51.9558
17.1283
163.112
-14.1197
2.23549
-0.234296
-51.4715
163.124
17.2694
-6.31063
-0.362731
-1.58468
-45.5758
-11.0053
14.0703
-1.02226
-2.64825
-1.56002
-0.995764
-9.43647
-3.52375
-1.26252
-1.15705
-0.898125
1.03626
2.04895
-0.278225
-0.14219
1.46565
3.65025
0.447807
2.32452
5.14679
0.282501
15.544
4.27154
11.3767
3.40679
5.60993
7.80056
18.5672
134.784
12.8184
20.6671
0.624764
7.80112
5.62127
134.793
18.6947
20.6688
12.8398
-0.80687
5.15883
2.32696
15.6677
0.340519
11.3989
4.29422
-0.354975
2.05109
1.04804
-0.0899581
-0.252795
3.6725
1.4803
2.1801
1.43167
2.19283
1.70532
3.69584
1.76465
2.98339
5.02973
2.31607
3.47511
4.25483
10.2986
3.1833
5.16036
7.3152
3.59605
4.22192
11.4686
17.3646
5.3864
6.51489
5.44677
4.22214
3.59927
17.366
11.4863
6.5152
5.39124
2.45308
3.47858
2.32043
10.3175
4.27352
5.16556
3.18947
1.27853
2.19718
1.43615
3.71389
1.7162
2.98951
1.77022
2.07602
1.23453
1.60765
1.63106
2.60756
1.41888
1.8864
3.24072
1.79253
2.22453
3.02027
4.32433
2.12186
2.69371
3.96565
2.3533
2.55295
4.74095
5.42489
2.85804
3.11195
3.51418
2.55314
2.3545
5.42541
4.74424
3.11218
2.85951
2.37219
2.226
1.79443
4.32832
3.0251
2.6955
2.12419
1.35178
1.60958
1.23624
2.61236
1.63532
1.88877
1.42095
1.46404
0.892128
1.11845
1.31839
1.68902
0.984653
1.24753
1.97523
1.2165
1.4289
1.88751
2.3355
1.3602
1.60548
2.23414
1.48491
1.56978
2.46008
2.65583
1.67096
1.77159
2.07783
1.56985
1.48537
2.65601
2.46121
1.77168
1.6715
1.62484
1.42947
1.21725
2.33689
1.88932
1.60615
1.36108
1.16306
1.11923
0.892784
1.69088
1.32002
1.24844
0.985444
1.03692
0.738984
0.819093
0.941146
1.14581
0.778019
0.864436
1.30266
0.962745
1.04455
1.23631
1.44909
1.01665
1.10463
1.42121
1.11767
1.1504
1.50247
1.58685
1.18292
1.21821
1.34915
1.15047
1.11786
1.58692
1.5029
1.21828
1.18312
1.11756
1.04484
0.963095
1.44962
1.23701
1.10495
1.01703
0.857053
0.819464
0.739339
1.14653
0.941791
0.864844
0.778411
0.0767556
0.079596
0.10384
0.0512718
0.0718481
0.0611747
0.0871874
0.0627614
0.0979607
0.117917
0.0958264
0.0923381
0.0818449
0.104503
-0.483078
0.109736
0.102887
0.0916022
0.0893506
0.0961778
0.103659
0.0352074
0.106631
0.109576
0.0894208
0.0911175
0.104054
0.0962199
0.0999904
0.11874
0.0982558
0.0918804
0.0961952
0.105091
0.0825672
0.0687932
0.104487
0.0811586
0.0711344
0.0522116
0.087795
0.0627274
0.115658
0.108856
0.161688
0.0668733
0.0947086
0.0832404
0.128079
0.13746
0.155413
0.208576
0.089225
0.113741
0.123121
0.158406
0.12854
0.198754
0.216854
0.105551
0.115223
0.15164
0.164812
0.129894
0.216688
0.196615
0.115758
0.105622
0.165514
0.151809
0.109811
0.21025
0.155807
0.114522
0.0901109
0.159707
0.124263
0.0885389
0.162755
0.111049
0.0955553
0.0686325
0.129583
0.0855997
0.181717
0.165721
0.264933
0.0934545
0.143191
0.129321
0.205604
0.239281
0.262559
0.369849
0.13823
0.17838
0.202828
0.261969
0.252631
0.368748
0.409726
0.173244
0.187306
0.265088
0.279637
0.226331
0.411734
0.363167
0.188163
0.173448
0.281015
0.265074
0.176531
0.373646
0.263025
0.179922
0.139396
0.264125
0.204733
0.123197
0.266374
0.168236
0.144943
0.0960175
0.207857
0.13255
0.302712
0.338818
0.471525
0.15666
0.233626
0.267437
0.36313
0.431815
0.449454
0.707551
0.229925
0.29933
0.331987
0.451391
0.500107
0.783167
0.986352
0.306859
0.316757
0.481253
0.469192
0.432937
1.01221
0.77382
0.318568
0.306716
0.473731
0.480322
0.301338
0.716533
0.451306
0.301866
0.231936
0.455738
0.334791
0.200505
0.473666
0.340298
0.23592
0.160054
0.365754
0.27114
0.537694
0.223229
0.742701
0.167795
0.415606
0.160407
0.588663
0.832383
0.696807
1.32251
0.378277
0.522202
0.587377
0.889609
1.30071
1.83326
6.41326
0.561964
0.53167
0.949253
0.659499
0.935445
6.69302
1.86678
0.537378
0.560612
0.719647
0.947624
0.516349
1.35072
0.703961
0.527059
0.381485
0.886746
0.595741
0.22047
0.749327
0.228372
0.418545
0.171828
0.593179
0.165674
0.800551
0.351612
1.1817
0.191433
0.619176
0.237262
0.806713
1.278
1.26455
2.34915
0.669337
1.00668
0.848177
1.42258
-10.4186
2.46988
3.75611
1.11399
1.17164
1.49862
1.79018
1.65414
3.77951
2.47158
1.17416
1.13567
1.78585
1.48941
0.885357
2.35639
1.26755
1.02209
0.673274
1.41634
0.848076
0.27272
1.18689
0.354244
0.623146
0.196846
0.807048
0.23944
1.23932
0.194689
1.45455
0.224224
0.828127
0.0423857
0.753958
2.55757
1.66205
4.78103
0.876005
1.49959
0.851797
1.92428
4.29447
5.5428
12.4352
1.58268
1.9058
2.10421
2.84858
2.71228
12.498
5.7004
1.90255
1.57125
2.85076
2.08607
1.33665
4.85844
1.66547
1.49178
0.875311
1.91007
0.847046
0.354336
1.45766
0.19349
0.828535
0.225701
0.750046
0.0430052
1.4262
-0.577151
0.459286
-0.0773066
0.693905
-0.662467
-0.261996
5.16391
0.680578
5.10656
0.795403
1.9242
-0.16448
1.03875
15.1058
5.51657
31.388
2.11484
2.93611
1.17385
2.48442
6.32182
32.2161
5.00076
2.93917
2.09173
2.42177
1.16476
1.64656
4.67755
0.644503
1.90516
0.790144
1.03032
-0.16879
0.0702711
0.437798
-0.575406
0.689922
-0.0769039
-0.262523
-0.658433
0.213053
-2.35884
-3.53196
-0.942544
-0.490668
-2.02331
-3.1004
4.97735
-3.52566
4.14894
-0.396391
0.938466
-3.21236
-3.96306
28.643
6.25835
86.6443
1.08245
2.45042
-3.91564
-2.64063
4.69413
86.0209
7.16226
2.3722
1.07765
-2.64473
-3.73784
0.423032
4.89441
-3.42091
0.936753
-0.395663
-3.79364
-3.20062
-0.90557
-3.44875
-2.32997
-0.487349
-0.935294
-3.08074
-2.00343
-4.48348
-3.81662
-9.66499
-2.39623
-3.61593
-2.87471
-5.85019
2.38407
-11.25
-45.4369
-3.79265
-4.62443
-6.48197
-13.5637
91.7709
-51.036
-211.315
-4.61983
-3.63296
-14.2321
-21.7011
5.16614
-209.235
-50.5794
-3.64784
-4.50096
-21.6979
-14.1653
-4.53263
-45.0488
-11.1696
-4.51349
-3.78332
-13.5002
-6.4422
-2.89436
-9.58616
-3.78359
-3.59243
-2.37387
-5.81192
-2.85054
-9.51197
-1.18477
-1.32001
-2.6638
-5.71405
-1.0086
-1.57793
-45.9879
-1.08642
13.9093
-6.33094
-13.4797
-1.6041
-0.393736
17.098
163.11
-14.1564
-21.7083
-0.257959
2.27201
-51.468
163.121
17.272
-21.7046
-14.0883
2.2715
-0.217516
-11.003
14.0727
-1.0216
-13.4118
-6.2907
-0.322762
-1.57118
-3.52363
-1.26326
-1.15578
-5.67552
-2.63924
-1.54715
-0.988959
-0.14169
1.46686
3.65256
-0.366186
-0.88649
1.04191
2.04519
15.5118
4.27337
11.3745
-0.824411
0.468277
2.32143
5.15645
134.778
12.8198
20.6745
0.610505
3.44923
5.62059
7.70649
18.6968
20.6764
12.8414
3.44681
0.64244
7.70645
5.63197
0.341899
11.397
4.29366
0.523146
-0.793863
5.16915
2.34635
-0.251811
3.67173
1.48085
-0.85797
-0.348744
2.06974
1.05115
3.69667
1.7652
2.98409
1.27377
2.18082
1.43423
2.19597
10.2943
3.18406
5.15766
2.44934
5.04012
2.31929
3.48077
17.3658
5.38327
6.51434
5.44838
7.24038
3.60293
4.22313
11.4829
6.51462
5.3877
7.2407
5.45684
4.22334
3.60625
4.27401
5.16261
3.19021
5.04985
2.46751
3.48436
2.32373
1.71737
2.99019
1.77044
2.1992
1.2812
2.20042
1.43834
2.60827
1.41908
1.88667
1.35037
2.07912
1.23597
1.60923
4.32751
2.12217
2.69407
2.37246
3.2437
1.79436
2.22657
5.41997
2.8583
3.11205
3.50961
3.96145
2.35464
2.55533
4.74588
3.11228
2.85976
3.96186
3.51218
2.55553
2.35587
3.02621
2.69585
2.1245
3.24678
2.37621
2.22808
1.79631
1.63558
1.88906
1.42112
2.08294
1.35353
1.61124
1.2377
1.68925
0.984734
1.24766
1.16273
1.46535
0.893025
1.11923
2.33578
1.36033
1.60563
1.62488
1.97702
1.21743
1.42995
2.65596
1.6711
1.77173
2.07845
2.23636
1.48599
1.57098
2.46142
1.77182
1.67164
2.23651
2.07941
1.57106
1.48647
1.88957
1.6063
1.36122
1.9782
1.62644
1.43054
1.21822
1.32017