/*--------------------------------*- C++ -*----------------------------------*\
| =========                 |                                                 |
| \\      /  F ield         | OpenFOAM: The Open Source CFD Toolbox           |
|  \\    /   O peration     | Version:  2206                                  |
|   \\  /    A nd           | Website:  www.openfoam.com                      |
|    \\/     M anipulation  |                                                 |
\*---------------------------------------------------------------------------*/
FoamFile
{
    version     2.0;
    format      ascii;
    arch        "LSB;label=32;scalar=64";
    class       volScalarField;
    location    "400";
    object      ReThetat;
}
// * * * * * * * * * * * * * * * * * * * * * * * * * * * * * * * * * * * * * //

dimensions      [0 0 0 0 0 0 0];

internalField   nonuniform List<scalar> 
198968
(
507.579
536.083
536.015
535.988
535.989
536.017
536.087
507.177
483.376
478.835
476.97
477.133
477.422
476.915
477.711
482.932
427.019
471.478
468.952
469.1
469.334
468.87
469.654
473.337
426.865
457.494
454.57
454.685
454.927
454.428
455.393
459.471
419.613
443.898
439.757
439.574
439.737
439.326
441.019
446.375
406.532
432.249
427.885
426.847
426.15
427.26
428.99
434.657
397.858
420.567
414.938
413.49
412.345
414.284
416.109
423.394
389.264
407.349
404.597
402.991
402.253
403.923
404.864
410.083
380.039
397.19
396.166
394.286
394.015
395.162
396.1
398.944
371.847
384.935
384.861
384.416
384.357
384.489
384.652
386.394
364.256
372.576
371.983
371.859
371.838
371.872
371.928
373.92
355.506
359.866
358.771
358.737
358.735
358.727
358.799
361.008
340.953
345.912
345.128
345.146
345.151
345.139
345.11
347.392
325.008
329.849
329.771
329.795
329.802
329.792
329.753
332.143
308.866
313.693
313.653
313.647
313.645
313.653
313.632
316.128
292.516
297.324
297.294
297.293
297.295
297.299
297.303
299.861
277.359
280.664
280.649
280.647
280.648
280.653
280.661
283.406
260.296
263.569
263.565
263.563
263.563
263.567
263.572
266.424
242.883
245.852
245.864
245.868
245.868
245.867
245.862
248.587
222.121
227.462
227.476
227.488
227.49
227.483
227.469
222.121
461.804
557.875
557.817
557.765
557.785
557.785
557.819
560.285
450.98
540.904
540.863
540.815
540.841
540.831
540.851
543.48
441.15
525.98
525.966
525.912
525.935
525.931
525.935
528.576
431.354
510.157
510.158
510.12
510.137
510.142
510.103
512.9
420.7
493.198
493.177
493.113
493.13
493.142
493.132
496.102
410.966
474.571
474.643
474.686
474.73
474.668
474.566
476.845
402.926
454.349
454.476
454.513
454.581
454.482
454.414
455.563
395.002
432.523
432.565
432.628
432.697
432.578
432.534
433.874
386.815
408.772
408.744
408.78
408.809
408.753
408.721
408.972
377.098
393.067
393.034
392.991
392.99
393.017
393.023
393.279
367.266
377.306
377.411
377.398
377.406
377.404
377.327
377.473
357.528
361.56
361.714
361.782
361.79
361.756
361.61
361.525
345.99
345.85
345.968
346.058
346.084
346.031
345.902
345.846
329.739
329.9
329.989
330.034
330.054
330.004
329.956
329.921
313.562
313.647
313.524
313.486
313.484
313.476
313.52
313.66
297.181
297.173
297.057
297.023
297.024
297.04
297.085
297.227
280.421
280.449
280.381
280.362
280.361
280.361
280.425
280.558
263.268
263.257
263.208
263.24
263.264
263.22
263.227
263.373
245.483
245.497
245.508
245.53
245.543
245.522
245.503
245.527
227.17
227.224
227.277
227.301
227.31
227.293
227.248
227.208
447.494
557.488
553.652
553.087
552.968
553.291
554.265
558.799
434.08
540.629
537.874
537.423
537.402
537.588
538.277
541.969
422.968
525.729
524.047
523.901
523.943
524.006
524.16
526.985
409.444
512.003
511.988
512.057
512.05
512.057
511.968
511.61
400.149
495.022
494.905
494.91
494.905
494.913
494.897
494.872
390.666
476.762
476.654
476.643
476.654
476.639
476.642
476.633
380.096
456.895
456.86
456.843
456.866
456.834
456.851
456.819
371.024
435.363
435.385
435.347
435.376
435.336
435.367
435.19
322.784
411.963
411.965
411.923
411.922
411.917
411.946
411.899
322.863
395.057
395.11
395.097
395.087
395.101
395.085
395.022
328.001
379.377
379.505
379.569
379.543
379.573
379.456
379.334
334.835
363.631
363.869
364.125
364.095
364.115
363.79
363.616
337.404
347.98
348.217
348.533
348.689
348.483
348.143
347.933
331.806
332.103
332.425
332.705
332.874
332.592
332.348
332.07
315.783
315.791
315.614
315.423
315.448
315.435
315.681
315.846
299.454
299.229
299.01
298.812
298.751
298.851
299.064
299.355
282.776
282.567
282.281
281.951
281.912
281.998
282.355
282.685
263.2
265.391
265.187
264.988
264.944
265.031
265.241
263.092
245.42
247.767
247.726
247.639
247.607
247.662
247.742
245.414
227.253
227.296
227.285
227.27
227.264
227.279
227.297
227.284
446.937
553.006
476.118
440.386
438.319
442.368
503.505
558.932
433.367
537.056
458.879
416.273
413.526
418.493
491.299
542.166
421.109
522.944
444.571
399.948
398.033
401.468
482.208
527.349
407.419
512.715
469.882
390.009
390.393
390.454
478.349
511.597
398.886
495.441
469.49
378.429
378.742
378.909
478.795
494.93
388.52
477.032
464.159
366.821
367.129
367.389
472.57
476.749
379.772
457.075
450.625
355.281
355.788
355.981
457.088
456.768
368.142
435.479
431.584
344.562
345.425
345.541
435.964
435.237
318.919
411.896
416.837
336.551
339.055
336.93
414.247
411.833
326.107
394.891
395.984
340.727
344.309
341.612
395.737
394.836
333.277
379.268
380.211
355.701
359.403
356.494
380.18
379.185
334.013
363.804
364.889
364.842
364.218
364.938
364.833
363.689
334.23
348.258
349.776
350.558
350.041
350.55
349.817
348.128
332.566
332.437
334.235
336.335
337.706
336.214
334.123
332.352
315.81
315.779
316.776
316.623
315.982
316.635
316.812
315.856
299.419
299.05
299.57
298.626
298.069
298.718
299.675
299.261
282.776
282.391
281.897
281.44
281.153
281.559
282.007
282.594
263.382
265.429
265.103
264.725
264.625
264.807
265.19
263.227
245.498
247.781
247.582
247.525
247.513
247.533
247.605
245.454
227.274
227.276
227.254
227.246
227.244
227.25
227.264
227.284
475.389
553.285
474.844
426.765
392.908
441.287
503.544
558.921
449.847
537.345
457.325
401.645
369.026
417.043
491.355
542.225
422.921
523.215
442.748
386.538
349.328
400.515
482.302
527.591
407.483
512.492
467.472
380.597
305.38
388.682
479.059
511.798
398.711
495.39
466.411
368.338
278.327
376.754
479.467
495.067
388.139
477.01
460.523
356.331
254.922
364.834
473.096
476.931
379.573
457.082
447.004
344.234
233.479
353.104
457.432
456.887
367.681
435.501
428.702
332.85
213.222
342.319
436.183
435.251
318.141
411.97
417.051
327.716
161.503
332.292
414.695
411.865
325.558
394.889
396.495
329.55
135.504
335.578
395.838
394.8
333.525
379.214
380.232
341.388
119.555
348.578
380.093
379.137
333.423
363.795
364.734
356.19
61.8716
359.189
364.752
363.661
334.03
348.391
349.953
339.278
27.1827
341.856
349.891
348.218
332.646
332.642
335.214
339.102
339.427
334.901
332.492
315.804
315.598
316.282
312.709
284.305
313.337
316.372
315.734
299.403
299.028
299.079
297.435
295.987
297.733
299.214
299.233
282.78
282.362
281.806
281.101
280.818
281.283
281.933
282.57
263.435
265.456
265.036
264.64
264.544
264.716
265.162
263.251
245.504
247.799
247.543
247.498
247.485
247.505
247.569
245.458
227.27
227.27
227.25
227.242
227.24
227.246
227.259
227.28
464.324
553.15
494.153
478.197
478.11
479.934
505.413
560.112
438.455
537.076
480.506
461.657
461.458
463.735
493.134
543.3
422.065
522.951
469.796
447.817
447.553
450.238
483.834
527.469
407.515
512.895
472.569
407.9
406.916
409.34
477.314
512
398.798
495.699
472.834
399.444
398.402
400.661
478.137
495.313
389.046
477.096
467.668
390.338
389.147
391.57
472.12
477.082
379.576
457.055
453.719
379.133
378.774
380.056
456.766
457.293
369.603
435.422
433.753
368.352
367.711
369.502
435.728
435.13
319.752
411.848
416.239
336.21
338.401
336.811
414.339
411.796
325.829
394.93
395.997
342.865
346.04
343.786
395.794
394.879
331.473
379.288
380.251
356.917
360.354
357.748
380.237
379.213
334.314
363.796
364.9
364.997
364.639
365.103
364.846
363.671
334.296
348.202
349.844
350.597
350.362
350.607
349.599
348.068
332.529
332.352
334.018
336.058
337.238
335.939
333.916
332.27
315.809
315.809
316.805
316.702
316.19
316.717
316.81
315.869
299.415
299.098
299.66
298.807
298.464
298.88
299.724
299.273
282.741
282.43
281.946
281.591
281.35
281.672
282.05
282.597
263.265
265.415
265.115
264.796
264.682
264.877
265.192
263.14
245.464
247.79
247.598
247.543
247.525
247.552
247.633
245.435
227.276
227.287
227.268
227.254
227.253
227.259
227.28
227.294
460.239
557.647
557.901
558.031
558.047
558.006
557.813
561.139
448.159
540.677
540.875
540.992
541.003
540.952
540.718
544.529
438.37
525.714
525.7
525.694
525.703
525.665
525.57
529.855
429.26
509.76
509.689
509.669
509.676
509.664
509.619
514.083
417.309
492.744
492.618
492.585
492.596
492.573
492.572
497.591
406.546
474.2
474.161
474.16
474.187
474.137
474.145
479.709
397.476
454.068
454.141
454.14
454.171
454.113
454.134
460.259
389.239
432.384
432.447
432.437
432.468
432.409
432.445
438.728
380.667
411.933
411.953
411.954
411.982
411.934
411.974
411.587
372.52
395.013
395.11
395.099
395.107
395.107
395.14
395.213
365.583
379.358
379.466
379.499
379.508
379.553
379.486
379.37
355.299
363.708
363.849
364.012
364.068
364.029
363.81
363.595
344.535
347.961
348.149
348.361
348.487
348.319
348.095
347.891
329.804
332.119
332.343
332.503
332.624
332.432
332.289
332.042
313.679
315.826
315.591
315.491
315.523
315.476
315.668
315.812
297.271
299.3
299.108
298.974
298.96
298.976
299.166
299.359
280.526
282.622
282.441
282.242
282.226
282.236
282.528
280.411
263.242
263.138
263.001
262.946
262.919
262.964
263.075
263.2
245.41
245.411
245.399
245.374
245.373
245.388
245.411
245.421
227.194
227.266
227.289
227.287
227.286
227.291
227.283
227.243
506.988
536.184
536.083
536.028
536.027
536.048
536.111
507.684
483.714
557.537
558.701
558.347
558.046
558.674
558.011
483.452
447.724
539.662
540.91
540.57
540.281
540.879
540.23
554.728
443.488
524.432
525.817
525.453
525.147
525.783
525.104
530.095
437.443
508.168
509.753
509.425
509.146
509.736
508.948
513.717
425.401
488.335
490.38
490.721
491.265
490.404
489.184
493.507
407.891
465.249
467.743
468.244
469.138
467.675
466.326
468.696
396.572
439.434
441.481
443.076
444.195
441.866
440.69
441.336
384.246
410.982
411.691
414.662
415.345
412.947
411.602
412.998
374.13
393.615
392.801
393.15
393.184
393.119
392.912
395.754
364.141
377.899
377.18
377.199
377.206
377.188
377.285
379.949
353.621
361.513
361.514
361.525
361.525
361.521
361.443
363.813
342.302
345.852
345.792
345.829
345.835
345.813
345.738
348.163
327.538
329.906
329.848
329.87
329.873
329.863
329.813
332.307
311.433
313.706
313.612
313.571
313.553
313.591
313.632
316.273
295.037
297.285
297.197
297.182
297.181
297.189
297.218
299.974
278.197
280.579
280.545
280.539
280.539
280.544
280.554
283.363
260.889
263.437
263.434
263.438
263.438
263.439
263.434
266.346
243.006
245.689
245.697
245.699
245.702
245.698
245.694
248.473
222.121
227.301
227.328
227.335
227.335
227.334
227.312
222.121
511.972
499.344
499.26
512.904
477.467
500.066
478.491
512.046
499.267
499.281
471.947
409.168
472.424
402.675
512.051
499.285
499.279
408.246
406.886
401.904
400.616
512.064
499.279
499.287
406.851
408.018
400.585
401.735
511.987
499.289
499.266
409.072
472.476
402.618
472.947
511.988
499.26
499.349
477.883
512.904
478.869
500.057
494.898
481.481
481.348
495.712
478.186
481.832
474.575
494.907
481.357
481.341
472.189
400.515
469.214
393.845
494.905
481.344
481.345
399.722
398.386
393.015
391.566
494.91
481.345
481.34
398.354
399.556
391.527
392.87
494.904
481.343
481.356
400.465
472.69
393.83
469.603
495.026
481.348
481.485
478.535
495.704
474.79
481.828
476.642
461.992
461.948
477.099
472.103
462.151
461.278
476.638
461.959
461.935
467.199
391.422
457.713
382.897
476.653
461.944
461.964
390.608
389.151
382.454
381.482
476.638
461.965
461.938
389.11
390.472
381.434
382.35
476.653
461.936
461.958
391.422
467.544
382.949
457.937
476.766
461.947
461.994
472.271
477.096
461.328
462.149
456.852
440.873
440.914
457.053
456.712
441.016
441.235
456.833
440.928
440.881
453.421
379.887
438.852
371.884
456.865
440.893
440.921
379.394
378.775
371.171
370.171
456.837
440.922
440.886
378.724
379.299
370.114
371.09
456.859
440.881
440.926
379.956
453.614
371.993
438.984
456.897
440.913
440.874
456.737
457.051
441.225
441.014
435.368
418.01
417.992
435.423
435.667
417.942
418.156
435.335
418.009
417.955
433.556
369.337
416.83
362.294
435.375
417.963
417.972
368.639
367.688
361.671
361.197
435.341
417.972
417.956
367.629
368.559
361.136
361.59
435.384
417.955
418.007
369.455
433.676
362.43
416.912
435.364
417.99
418.011
435.655
435.421
418.144
417.939
411.947
398.977
399.006
411.849
414.159
398.866
397.76
411.917
399.021
399.005
416.221
336.486
398.08
342.572
411.922
399.001
398.99
336.242
338.438
342.047
344.834
411.916
398.99
398.998
338.391
336.345
344.801
341.981
411.963
399.006
399.021
336.556
416.215
342.465
398.055
411.964
399.005
398.977
414.136
411.846
397.75
398.866
395.085
383.305
383.363
394.933
395.789
383.189
382.161
395.1
383.403
383.443
396.04
343.555
382.215
355.779
395.086
383.442
383.426
343.034
346.051
355.287
358.786
395.094
383.427
383.44
345.981
342.955
358.706
355.05
395.11
383.444
383.403
343.415
396.008
355.383
382.192
395.057
383.363
383.302
395.782
394.932
382.153
383.183
379.456
367.565
367.699
379.295
380.237
367.65
366.763
379.571
367.795
367.985
380.27
357.707
366.824
365.74
379.542
367.986
367.926
357.222
360.522
365.649
365.374
379.567
367.926
367.986
360.446
356.961
365.374
365.636
379.506
367.988
367.797
357.302
380.254
365.723
366.824
379.374
367.707
367.59
380.229
379.289
366.763
367.656
363.775
351.905
352.041
363.787
364.844
352.113
351.489
364.112
352.12
352.382
364.898
365.063
351.563
351.544
364.095
352.436
352.614
364.996
364.607
351.544
351.231
364.125
352.596
352.483
364.609
365.002
351.231
351.521
363.874
352.391
352.12
365.066
364.899
351.534
351.707
363.679
352.046
351.915
364.844
363.796
351.645
352.121
348.142
336.11
336.351
348.2
349.605
336.384
335.965
348.471
336.432
336.688
349.677
350.622
336.077
336.954
348.718
336.781
336.942
350.611
350.361
337.076
338.303
348.568
336.949
336.769
350.361
350.592
338.305
337.083
348.216
336.684
336.432
350.603
349.843
336.956
336.077
347.982
336.35
336.11
349.762
348.201
335.964
336.383
332.348
319.873
319.907
332.352
333.921
319.932
318.97
332.613
319.872
319.751
334.023
335.951
318.986
317.901
332.853
319.755
319.818
336.074
337.259
317.861
317.388
332.645
319.827
319.758
337.262
336.077
317.39
317.864
332.424
319.752
319.872
335.952
334.023
317.902
318.986
332.102
319.906
319.873
333.921
332.351
318.97
319.931
315.681
303.4
303.188
315.808
316.814
303.264
301.782
315.436
303.134
302.995
316.81
316.746
301.723
300.958
315.438
302.963
302.902
316.71
316.202
300.876
300.36
315.424
302.902
302.963
316.204
316.712
300.36
300.876
315.613
302.995
303.134
316.747
316.809
300.958
301.732
315.791
303.188
303.398
316.815
315.807
301.798
303.264
299.066
286.762
286.554
299.095
299.726
286.622
285.141
298.852
286.486
286.233
299.656
298.884
285.08
284.721
298.752
286.176
286.11
298.807
298.345
284.678
284.367
298.812
286.108
286.176
298.345
298.807
284.367
284.678
299.009
286.233
286.486
298.884
299.662
284.721
285.08
299.227
286.555
286.762
299.738
299.096
285.141
286.622
282.355
269.724
269.548
282.428
282.05
269.715
269.465
281.999
269.487
269.316
281.946
281.659
269.384
269.141
281.913
269.278
269.233
281.557
281.331
269.029
268.853
281.951
269.227
269.278
281.331
281.557
268.853
269.029
282.281
269.316
269.487
281.659
281.946
269.141
269.384
282.566
269.548
269.724
282.05
282.428
269.465
269.715
265.242
252.191
252.145
265.412
265.192
252.273
252.089
265.031
252.13
252.062
265.116
264.87
252.026
251.929
264.947
252.031
251.994
264.778
264.672
251.915
251.891
264.988
251.993
252.031
264.672
264.778
251.891
251.915
265.187
252.062
252.13
264.87
265.116
251.929
252.026
265.391
252.145
252.191
265.192
265.412
252.089
252.273
247.742
236.321
236.309
247.788
247.633
236.3
236.265
247.662
236.291
236.263
247.598
247.552
236.24
236.228
247.608
236.245
236.24
247.544
247.528
236.215
236.209
247.639
236.24
236.245
247.528
247.544
236.209
236.215
247.726
236.263
236.291
247.552
247.598
236.228
236.24
247.767
236.309
236.321
247.633
247.788
236.265
236.3
478.06
499.791
478.885
512.5
479.007
499.747
479.746
390.276
469.661
381.629
467.115
388.685
466.589
379.75
390.384
381.301
381.652
380.567
306.153
371.31
285.473
389.976
381.624
381.309
305.684
380.543
284.949
371.286
469.96
381.769
469.894
388.669
467.335
379.737
466.777
512.69
478.953
499.787
479.371
512.491
480.09
499.739
478.536
481.735
474.895
495.396
479.366
481.709
475.554
378.718
466.146
370.079
466.052
376.742
462.513
367.805
378.723
369.687
370.021
368.291
279.23
359.309
261.701
378.386
369.988
369.692
278.684
368.265
261.066
359.272
469.504
370.226
466.258
376.73
466.219
367.793
462.591
495.44
474.954
481.733
479.689
495.388
475.775
481.703
472.437
462.166
461.626
477.012
473.025
462.171
462.015
367.187
454.687
358.582
460.319
364.819
450.901
355.986
367.114
358.101
358.58
356.283
256.296
347.196
240.715
366.775
358.529
358.107
255.621
356.241
239.904
347.135
464.137
358.749
454.685
364.805
460.367
355.964
450.885
477.031
461.656
462.163
473.209
477.006
462.101
462.165
457.052
441.053
441.539
457.082
457.391
441.055
441.767
355.742
436.64
347.761
446.925
353.091
433.518
344.911
355.782
347.075
347.906
344.184
235.772
335.549
221.372
355.227
347.829
347.083
234.919
344.115
220.448
335.456
450.571
347.977
436.596
353.065
446.899
344.868
433.489
457.072
441.553
441.05
457.455
457.076
441.797
441.049
435.954
418.004
418.355
435.501
436.154
418.081
418.481
345.227
415.491
338.397
428.657
342.313
413.348
335.317
345.427
337.542
338.842
332.79
216.682
325.192
202.18
344.491
338.798
337.492
215.763
332.688
201.37
325.036
431.518
338.75
415.429
342.265
428.631
335.248
413.339
435.476
418.363
418
436.18
435.495
418.498
418.076
414.236
398.831
397.711
411.971
414.663
398.856
397.842
336.581
397.999
339.9
417.045
332.325
398.567
334.746
339.064
339.58
343.053
327.729
167.425
328.902
143.684
336.557
342.938
339.724
167.334
327.54
144.445
328.685
416.869
340.411
397.994
332.235
417.069
334.651
398.571
411.892
397.704
398.83
414.688
411.966
397.84
398.856
395.744
383.151
382.107
394.89
395.839
383.093
382.035
340.895
382.15
353.436
396.497
335.581
382.22
346.708
344.297
353.437
357.614
329.568
141.013
339.685
124.849
340.713
357.444
353.587
142.031
329.348
128.262
339.431
395.98
354.248
382.145
335.485
396.5
346.646
382.219
394.892
382.102
383.152
395.836
394.889
382.03
383.096
380.184
367.66
366.752
379.215
380.097
367.648
366.65
355.48
366.809
365.55
380.236
348.545
366.627
359.01
359.392
365.463
364.965
341.443
121.11
356.358
67.3653
355.676
364.963
365.488
124.78
341.173
69.0517
356.286
380.208
365.578
366.814
348.5
380.235
359.383
366.642
379.27
366.754
367.664
380.093
379.218
366.657
367.652
364.833
352.159
351.599
363.795
364.742
352.243
351.737
364.904
351.655
351.511
364.735
358.742
351.737
343.141
364.214
351.498
350.874
356.181
63.2966
339.927
28.712
364.873
350.873
351.471
64.6948
356.127
29.7327
339.023
364.891
351.49
351.738
359.164
364.75
342.482
351.719
363.807
351.685
352.16
364.75
363.799
351.723
352.241
349.72
336.476
336.157
348.391
349.903
336.684
336.935
350.575
336.279
337.221
349.954
342.484
337.243
339.971
350.041
337.336
338.736
339.285
26.1661
339.519
28.9584
350.532
338.739
337.373
27.5642
338.447
29.0972
339.571
349.893
337.233
336.279
341.865
349.936
340.016
337.247
348.258
336.157
336.479
349.89
348.389
336.936
336.689
334.122
319.939
318.98
332.628
334.9
319.87
318.633
336.211
318.971
317.834
335.213
339.402
318.565
314.649
337.702
317.806
317.182
339.111
313.928
277.155
336.345
317.186
317.808
339.15
277.155
313.927
334.236
317.835
318.971
339.437
335.215
314.649
318.559
332.443
318.981
319.937
334.9
332.642
318.622
319.865
316.811
303.208
301.716
315.599
316.373
303.146
301.29
316.634
301.649
300.743
316.282
313.344
301.126
299.571
315.978
300.638
300.019
312.71
284.308
299.236
297.35
316.625
300.019
300.638
284.307
312.708
297.35
299.235
316.776
300.743
301.67
313.342
316.28
299.57
301.121
315.778
301.743
303.208
316.37
315.596
301.285
303.147
299.653
286.574
285.113
299.023
299.215
286.537
284.997
298.718
285.057
284.67
299.08
297.744
284.93
284.267
298.069
284.622
284.243
297.446
295.996
284.141
283.761
298.625
284.243
284.622
295.996
297.445
283.761
284.141
299.586
284.67
285.056
297.744
299.078
284.267
284.93
299.055
285.112
286.577
299.213
299.028
284.997
286.539
282.007
269.719
269.455
282.362
281.933
269.732
269.428
281.559
269.37
269.059
281.806
281.282
269.304
268.924
281.153
268.957
268.792
281.105
280.83
268.839
268.684
281.439
268.792
268.957
280.83
281.105
268.684
268.839
281.897
269.059
269.37
281.282
281.806
268.924
269.304
282.391
269.455
269.719
281.933
282.362
269.427
269.732
265.19
252.283
252.061
265.456
265.162
252.311
252.015
264.807
252
251.899
265.036
264.716
251.953
251.861
264.625
251.888
251.872
264.64
264.544
251.852
251.836
264.725
251.872
251.888
264.544
264.64
251.836
251.852
265.103
251.899
252
264.716
265.036
251.861
251.953
265.429
252.061
252.283
265.162
265.456
252.015
252.311
247.605
236.268
236.236
247.799
247.569
236.26
236.222
247.533
236.215
236.203
247.543
247.505
236.205
236.195
247.513
236.196
236.192
247.498
247.485
236.187
236.184
247.525
236.192
236.196
247.485
247.498
236.184
236.187
247.581
236.203
236.215
247.505
247.543
236.195
236.205
247.781
236.236
236.268
247.569
247.799
236.222
236.26
479.376
499.743
480.089
512.693
478.386
499.79
479.152
388.687
466.763
379.755
470.055
390.558
469.971
381.913
305.654
371.318
284.939
390.106
390.369
381.45
381.639
380.545
284.786
371.294
390.634
390.228
381.919
381.574
467.002
379.715
466.465
390.269
469.955
381.619
469.864
512.498
479.641
499.746
478.03
512.708
478.876
499.787
479.685
481.707
475.76
495.443
478.782
481.737
475.052
376.749
462.634
367.814
469.572
379.004
466.284
370.378
278.657
359.321
260.889
378.533
378.709
369.857
370.006
368.275
260.596
359.287
378.995
378.658
370.309
369.987
465.926
367.775
462.387
378.708
469.464
370.071
466.19
495.394
475.529
481.708
478.536
495.441
474.918
481.736
473.192
462.171
462.081
477.035
472.562
462.169
461.675
364.829
450.946
356.001
464.149
367.493
454.657
358.929
255.361
347.208
239.272
366.947
367.095
358.305
358.538
356.259
238.752
347.159
367.408
367.08
358.89
358.454
460.196
355.948
450.797
367.18
464.051
358.577
454.478
477.011
462.042
462.169
472.467
477.034
461.671
462.167
457.435
441.055
441.779
457.078
457.086
441.056
441.555
353.108
433.532
344.933
450.533
356.108
436.538
348.203
234.122
335.556
218.977
355.439
355.729
347.342
347.806
344.142
218.252
335.49
356.099
355.594
348.245
347.532
446.829
344.851
433.448
355.737
450.369
347.758
436.426
457.08
441.802
441.053
457.101
457.076
441.593
441.053
436.163
418.08
418.485
435.482
435.969
418.002
418.37
342.336
413.385
335.328
431.456
345.699
415.376
338.971
214.022
325.21
198.736
344.769
345.308
337.833
338.651
332.723
197.907
325.048
345.772
344.974
339.165
338.093
428.594
335.266
413.305
345.225
431.363
338.401
415.357
435.498
418.504
418.078
436.01
435.479
418.391
417.993
414.672
398.856
397.841
411.896
414.26
398.831
397.705
332.338
398.571
334.763
416.884
336.824
397.999
340.364
161.992
328.754
138.233
336.499
338.663
339.597
342.882
327.541
137.827
328.676
339.035
336.943
343.223
340.133
417.079
334.597
398.575
336.631
416.979
339.748
398.003
411.968
397.845
398.857
414.341
411.888
397.713
398.832
395.837
383.093
382.032
394.892
395.738
383.151
382.106
335.595
382.219
346.696
395.985
341.382
382.149
353.964
135.837
339.454
122.169
340.568
344.11
353.1
357.073
329.334
122.896
339.371
344.425
341.131
357.334
353.541
396.503
346.545
382.218
340.725
395.989
353.229
382.148
394.89
382.03
383.097
395.745
394.893
382.105
383.153
380.094
367.648
366.648
379.268
380.184
367.661
366.755
348.533
366.627
359.04
380.211
356.004
366.814
365.483
118.778
356.351
65.4677
355.131
358.868
365.417
364.965
341.105
66.0184
356.203
359.12
355.617
364.979
365.504
380.234
359.395
366.644
355.271
380.209
365.581
366.809
379.219
366.659
367.653
380.182
379.271
366.752
367.663
364.741
352.242
351.735
363.805
364.834
352.16
351.686
358.774
351.737
343.133
364.89
364.873
351.738
351.412
61.4713
339.924
28.4075
364.816
364.238
351.408
350.881
356.038
29.3609
339.015
364.246
364.876
350.881
351.495
364.752
342.476
351.72
364.939
364.889
351.512
351.645
363.799
351.724
352.241
364.833
363.807
351.592
352.159
349.902
336.691
336.935
348.258
349.818
336.479
336.153
342.476
337.244
339.949
349.893
350.546
336.271
337.207
25.8534
339.511
28.8733
350.529
350.045
337.317
338.717
338.44
28.9744
339.561
350.043
350.566
338.715
337.356
349.937
340.007
337.247
350.586
349.765
337.216
336.27
348.389
336.937
336.689
349.713
348.257
336.152
336.477
334.899
319.867
318.624
332.444
334.118
319.938
318.977
339.379
318.562
314.639
334.228
336.197
318.965
317.833
313.926
277.152
336.316
337.684
317.797
317.176
339.139
277.152
313.922
337.682
336.324
317.174
317.789
335.215
314.644
318.563
336.197
334.227
317.811
318.964
332.642
318.631
319.867
334.117
332.442
318.976
319.937
316.372
303.148
301.286
315.778
316.808
303.209
301.741
313.342
301.122
299.562
316.77
316.626
301.665
300.743
284.306
299.228
297.34
316.612
315.973
300.638
300.15
312.703
297.34
299.227
315.971
316.605
300.15
300.632
316.28
299.561
301.126
316.606
316.769
300.736
301.644
315.597
301.289
303.145
316.807
315.777
301.714
303.207
299.214
286.539
284.998
299.055
299.673
286.578
285.111
297.734
284.931
284.259
299.581
298.712
285.05
284.665
295.987
284.134
283.75
298.621
298.204
284.618
284.255
297.434
283.75
284.134
298.204
298.62
284.255
284.618
299.08
284.259
284.931
298.711
299.565
284.665
285.05
299.022
284.997
286.537
299.651
299.05
285.11
286.574
281.933
269.732
269.428
282.392
282.006
269.72
269.455
281.284
269.304
268.924
281.894
281.566
269.37
269.063
280.818
268.839
268.684
281.46
281.165
268.967
268.796
281.101
268.684
268.839
281.165
281.46
268.796
268.967
281.806
268.924
269.304
281.566
281.894
269.063
269.37
282.361
269.427
269.732
282.006
282.391
269.455
269.72
265.162
252.311
252.015
265.429
265.19
252.286
252.061
264.716
251.953
251.861
265.103
264.808
252
251.899
264.544
251.852
251.836
264.727
264.626
251.888
251.872
264.64
251.836
251.852
264.626
264.727
251.872
251.888
265.036
251.861
251.953
264.808
265.103
251.899
252
265.456
252.015
252.311
265.19
265.429
252.061
252.286
247.569
236.26
236.222
247.779
247.605
236.268
236.236
247.505
236.205
236.195
247.581
247.533
236.215
236.203
247.485
236.187
236.184
247.525
247.513
236.196
236.192
247.498
236.184
236.187
247.513
247.525
236.192
236.196
247.543
236.195
236.205
247.533
247.581
236.203
236.215
247.799
236.222
236.26
247.605
247.779
236.236
236.268
478.062
500.052
479.035
512.024
511.988
499.377
499.268
409.106
472.88
402.622
511.997
512.069
499.273
499.291
406.675
401.544
400.425
512.074
512.053
499.289
499.278
408.38
400.559
401.99
512.052
512.056
499.277
499.284
472.115
402.736
472.597
512.048
511.992
499.283
499.271
512.902
478.211
500.066
511.976
512.005
499.264
499.347
478.689
481.829
474.891
495.055
494.904
481.514
481.35
400.46
469.615
393.794
494.91
494.915
481.359
481.343
398.191
392.671
391.37
494.911
494.904
481.34
481.341
399.803
391.494
393.08
494.903
494.91
481.34
481.344
472.362
393.921
469.376
494.909
494.909
481.342
481.36
495.712
474.465
481.834
494.902
495.025
481.352
481.484
472.352
462.152
461.362
476.794
476.644
462.011
461.95
391.376
458.01
382.882
476.657
476.64
461.962
461.936
388.956
382.128
381.288
476.638
476.649
461.938
461.957
390.669
381.409
382.515
476.648
476.642
461.956
461.942
467.319
383
457.448
476.639
476.657
461.935
461.96
477.101
461.309
462.148
476.646
476.765
461.95
462.019
456.763
441.015
441.239
456.917
456.854
440.872
440.916
379.885
439.058
371.915
456.863
456.834
440.929
440.881
378.579
370.817
369.96
456.837
456.858
440.886
440.911
379.46
370.106
371.26
456.857
456.84
440.91
440.888
453.15
371.976
438.608
456.833
456.861
440.879
440.927
457.054
441.289
441.012
456.854
456.914
440.915
440.872
435.671
417.936
418.144
435.365
435.37
418.004
417.992
369.376
417.008
362.357
435.387
435.335
418.009
417.954
367.47
361.31
360.909
435.34
435.365
417.955
417.958
368.739
361.22
361.823
435.363
435.342
417.957
417.956
433.322
362.428
416.647
435.333
435.385
417.952
418.008
435.421
418.201
417.933
435.369
435.362
417.993
418.014
414.143
398.864
397.741
411.939
411.947
398.917
399.002
336.586
398.046
342.669
411.965
411.916
399.018
399.004
338.352
341.736
344.884
411.915
411.908
398.996
398.981
336.579
344.719
342.488
411.907
411.917
398.98
398.997
416.423
342.66
398.093
411.914
411.965
399.004
399.021
411.848
397.765
398.867
411.949
411.967
399.007
398.979
395.774
383.182
382.151
394.986
395.082
383.233
383.318
343.653
382.189
355.85
395.104
395.097
383.373
383.422
346.048
354.808
358.55
395.092
395.077
383.426
383.416
343.448
358.438
355.335
395.077
395.093
383.416
383.438
396.052
355.634
382.215
395.099
395.11
383.441
383.403
394.935
382.161
383.192
395.087
395.059
383.365
383.308
380.226
367.656
366.766
379.32
379.39
367.616
367.711
357.781
366.825
365.738
379.453
379.527
367.757
367.889
360.279
365.63
365.379
379.533
379.532
367.902
367.915
357.264
365.383
365.689
379.531
379.564
367.915
367.981
380.27
365.773
366.825
379.569
379.505
367.983
367.802
379.298
366.765
367.654
379.458
379.38
367.728
367.581
364.847
352.122
351.647
363.72
363.844
351.919
352.103
365.068
351.71
351.486
363.879
364.038
352.159
352.371
364.641
351.486
351.236
364.059
364.084
352.424
352.609
365.035
351.236
351.524
364.084
364.119
352.608
352.426
364.9
351.528
351.559
364.109
363.887
352.376
352.125
363.79
351.49
352.116
363.828
363.651
352.055
351.91
349.763
336.384
335.96
347.983
348.155
336.111
336.348
350.608
336.072
336.941
348.223
348.466
336.429
336.682
350.363
337.06
338.28
348.525
348.717