# Force and moment coefficients
# dragDir     : (0.000000e+00 1.000000e+00 0.000000e+00)
# sideDir     : (-1.000000e+00 0.000000e+00 0.000000e+00)
# liftDir     : (0.000000e+00 0.000000e+00 1.000000e+00)
# rollAxis    : (0.000000e+00 1.000000e+00 0.000000e+00)
# pitchAxis   : (-1.000000e+00 0.000000e+00 0.000000e+00)
# yawAxis     : (0.000000e+00 0.000000e+00 1.000000e+00)
# magUInf     : 4.200000e+01
# lRef        : 1.000000e+00
# Aref        : 3.140000e+00
# CofR        : (0.000000e+00 0.000000e+00 0.000000e+00)
#
# Time        	Cd            	Cd(f)         	Cd(r)         	Cl            	Cl(f)         	Cl(r)         	CmPitch       	CmRoll        	CmYaw         	Cs            	Cs(f)         	Cs(r)         
200           	-2.610428e-01	-1.322934e-01	-1.287494e-01	2.661790e-01	2.457933e-01	2.038576e-02	1.127038e-01	-1.772007e-03	-7.433366e-04	-6.552856e-04	-1.070979e-03	4.156938e-04
400           	-2.890339e-01	-1.466630e-01	-1.423710e-01	3.981904e-01	3.419159e-01	5.627453e-02	1.428207e-01	-2.145990e-03	-7.944421e-04	-8.987876e-04	-1.243836e-03	3.450483e-04
600           	-2.650926e-01	-1.345947e-01	-1.304980e-01	3.359832e-01	2.902004e-01	4.578287e-02	1.222087e-01	-2.048343e-03	-7.260589e-04	-9.757077e-04	-1.213913e-03	2.382051e-04
800           	-2.535714e-01	-1.286999e-01	-1.248714e-01	3.232150e-01	2.738185e-01	4.939647e-02	1.122110e-01	-1.914240e-03	-6.981676e-04	-8.735923e-04	-1.134964e-03	2.613715e-04
