# Force and moment coefficients
# dragDir     : (0.000000e+00 1.000000e+00 0.000000e+00)
# sideDir     : (-1.000000e+00 0.000000e+00 0.000000e+00)
# liftDir     : (0.000000e+00 0.000000e+00 1.000000e+00)
# rollAxis    : (0.000000e+00 1.000000e+00 0.000000e+00)
# pitchAxis   : (-1.000000e+00 0.000000e+00 0.000000e+00)
# yawAxis     : (0.000000e+00 0.000000e+00 1.000000e+00)
# magUInf     : 4.200000e+01
# lRef        : 1.000000e+00
# Aref        : 3.140000e+00
# CofR        : (0.000000e+00 0.000000e+00 0.000000e+00)
#
# Time        	Cd            	Cd(f)         	Cd(r)         	Cl            	Cl(f)         	Cl(r)         	CmPitch       	CmRoll        	CmYaw         	Cs            	Cs(f)         	Cs(r)         
10            	2.208663e-01	1.058030e-01	1.150634e-01	1.064020e-01	-2.745073e-01	3.809093e-01	-3.277083e-01	-4.630192e-03	1.942831e-04	-6.585528e-03	-3.098481e-03	-3.487047e-03
20            	-2.940518e-02	-1.682212e-02	-1.258306e-02	3.592003e-02	-7.664785e-02	1.125679e-01	-9.460787e-02	-2.119531e-03	-2.463118e-04	-2.878705e-03	-1.685664e-03	-1.193041e-03
30            	-1.176125e-01	-5.978049e-02	-5.783198e-02	5.938954e-02	2.180013e-02	3.758941e-02	-7.894636e-03	-9.742555e-04	-4.317645e-04	-6.473029e-04	-7.554159e-04	1.081130e-04
