/*--------------------------------*- C++ -*----------------------------------*\
| =========                 |                                                 |
| \\      /  F ield         | OpenFOAM: The Open Source CFD Toolbox           |
|  \\    /   O peration     | Version:  v1906                                 |
|   \\  /    A nd           | Web:      www.OpenFOAM.com                      |
|    \\/     M anipulation  |                                                 |
\*---------------------------------------------------------------------------*/
FoamFile
{
    version     2.0;
    format      ascii;
    class       volScalarField;
    location    "1000";
    object      k;
}
// * * * * * * * * * * * * * * * * * * * * * * * * * * * * * * * * * * * * * //

dimensions      [0 2 -2 0 0 0 0];


internalField   nonuniform List<scalar> 
270674
(
0.00901214
0.00650462
0.00666374
0.00666909
0.00666905
0.00666356
0.00650567
0.00903488
0.00892603
0.00647698
0.00676832
0.00677521
0.00677518
0.00676804
0.00647858
0.00897242
0.00883442
0.00645736
0.00687189
0.00688091
0.00688089
0.00687153
0.00645941
0.00890654
0.00869607
0.00643332
0.00702211
0.00703472
0.0070347
0.00702162
0.006436
0.00880921
0.00851877
0.0064173
0.0129431
0.0129473
0.0129481
0.0129477
0.00642083
0.00869379
0.00827871
0.00641426
0.0124364
0.0124562
0.0124644
0.0124446
0.00641977
0.00853607
0.00785084
0.00636191
0.0124203
0.0124432
0.0124538
0.0124341
0.00636911
0.00823862
0.00736833
0.006297
0.0123912
0.0124371
0.0124565
0.0124127
0.0063071
0.00792665
0.00683575
0.00616243
0.0122887
0.0123509
0.01238
0.0123162
0.00617945
0.00761262
0.00710405
0.00602701
0.0121016
0.0121806
0.0122127
0.0121432
0.00605844
0.00809998
0.00723458
0.00591711
0.0118023
0.0118711
0.0119032
0.0118365
0.00595449
0.0083616
0.00746737
0.00584103
0.0112889
0.0113256
0.0113535
0.0112882
0.00582111
0.00792187
0.00757849
0.00571621
0.0104158
0.0104209
0.0104413
0.0103978
0.00570139
0.00751005
0.00701609
0.00565078
0.00902724
0.00901194
0.00902777
0.00898503
0.00565297
0.00702914
0.0068735
0.00593392
0.00702274
0.00709526
0.00709738
0.00701564
0.0059335
0.00687096
0.00841524
0.00728101
0.00714276
0.00723468
0.00723516
0.00712575
0.00728109
0.0084157
0.0096055
0.00917898
0.00872011
0.00884963
0.00884979
0.0086937
0.00917897
0.00960542
0.0124613
0.0125416
0.0112812
0.0114747
0.0114741
0.0112385
0.0125416
0.0124613
0.0192091
0.0192116
0.0160968
0.0162833
0.0162796
0.0160263
0.0192116
0.0192091
0.0334659
0.0334717
0.0337466
0.0274056
0.0273966
0.0337466
0.0334717
0.0334659
0.00652155
0.00158582
0.00173385
0.00173845
0.00173849
0.00173374
0.00158527
0.00652104
0.00649137
0.0017507
0.00189433
0.00181782
0.0018305
0.00189422
0.00174995
0.00649026
0.00646959
0.00185786
0.00193665
0.00193874
0.00194588
0.0019388
0.00185697
0.00646784
0.00644436
0.00199422
0.0020823
0.00207791
0.00208034
0.00208184
0.00199316
0.00644163
0.00643328
0.0019715
0.00223969
0.00223572
0.00223444
0.00223801
0.0020652
0.00642892
0.00644247
0.00213547
0.00239245
0.00238819
0.00238683
0.00239062
0.00221556
0.00643495
0.00637528
0.00229267
0.00256701
0.00256223
0.0025606
0.00256508
0.00237161
0.00636616
0.00630617
0.00251512
0.00277185
0.00276898
0.00276747
0.00277076
0.00256831
0.00629273
0.00620474
0.00280914
0.00301854
0.00301358
0.0030118
0.00301588
0.0028834
0.00618579
0.00612913
0.0031948
0.00331072
0.00330244
0.00330037
0.00330512
0.00323488
0.00609996
0.00600175
0.00353738
0.00364914
0.00364467
0.003644
0.00364547
0.00355684
0.00596573
0.00587007
0.00398695
0.00405688
0.00405889
0.00405991
0.00405758
0.00399335
0.00586206
0.0057381
0.00452841
0.00456489
0.00456938
0.0045714
0.00456689
0.00452467
0.00573816
0.00568358
0.00517726
0.00520495
0.00521336
0.00521499
0.00520944
0.00516605
0.00568355
0.00591361
0.00604165
0.00604572
0.00605211
0.00605343
0.00604952
0.00604307
0.00591361
0.00726857
0.00718847
0.00719318
0.00719859
0.00719932
0.00719648
0.00718983
0.00726856
0.00916779
0.00885541
0.00885919
0.0088626
0.00886258
0.0088613
0.00885619
0.00916779
0.012533
0.0114943
0.0115046
0.0115083
0.0115017
0.0115076
0.011499
0.012533
0.0191938
0.0163268
0.0163594
0.0163705
0.0163592
0.0163716
0.0163418
0.0191938
0.0334664
0.027516
0.0276119
0.027595
0.0275897
0.0276147
0.0275765
0.0334664
0.00666763
0.0017363
0.00177976
0.00178485
0.00179128
0.00177976
0.0017358
0.00667111
0.00676633
0.00189967
0.00189585
0.00190862
0.00191527
0.00190743
0.00189907
0.00677105
0.00686768
0.00200556
0.0020046
0.0020205
0.0020277
0.00201295
0.00200489
0.0068715
0.00702511
0.00208232
0.00212919
0.00214458
0.00215239
0.00213598
0.00212673
0.00702015
0.0130253
0.00224373
0.00226724
0.0022841
0.00229262
0.00227484
0.00226405
0.00138624
0.0124394
0.00239404
0.00242366
0.00241704
0.00242507
0.0024321
0.0024196
0.00221441
0.012399
0.00256908
0.00260239
0.00259491
0.0026034
0.00261176
0.00259803
0.00241653
0.0123612
0.00277603
0.00280822
0.00279916
0.00280896
0.00281867
0.00280343
0.00261959
0.0122894
0.00301987
0.00304662
0.00303514
0.00304631
0.00305838
0.00304137
0.00284051
0.0120775
0.00330621
0.00332746
0.00331235
0.00332487
0.00334038
0.00332193
0.00314676
0.0117524
0.00364481
0.00366328
0.00364387
0.00365815
0.00363074
0.00365733
0.00348377
0.0112028
0.00405517
0.00407167
0.00404591
0.00406222
0.00403031
0.0040651
0.00389341
0.0102995
0.0045641
0.00457683
0.00454182
0.0045593
0.0045229
0.00456963
0.00438829
0.0088906
0.00520534
0.00521734
0.00516609
0.00518438
0.00514322
0.00521
0.00501123
0.00693236
0.00604438
0.00605532
0.0059772
0.00599534
0.00594955
0.00604861
0.00580141
0.00701147
0.00719256
0.00720265
0.00707656
0.00709429
0.00704113
0.0071966
0.00686495
0.00853614
0.00885839
0.00887278
0.00865853
0.00867638
0.008609
0.00886461
0.00839311
0.0110943
0.0114991
0.0115294
0.0111371
0.0111522
0.0110716
0.011512
0.0108917
0.0193929
0.0163363
0.0164056
0.0154945
0.0155071
0.0164168
0.01637
0.0193929
0.0334528
0.0275702
0.0276993
0.0275867
0.0277616
0.0276518
0.0276774
0.0334528
0.00665854
0.00174053
0.00177792
0.00184139
0.00223501
0.00179378
0.00174052
0.0066586
0.00676216
0.00190023
0.00190088
0.00196843
0.00241826
0.0019156
0.00190022
0.00676224
0.00686763
0.00194029
0.00201403
0.00208585
0.00259166
0.00202813
0.0020062
0.00686768
0.00703069
0.00208445
0.00213745
0.00221575
0.00251925
0.00215279
0.00212775
0.00703055
0.0130399
0.0022413
0.00227633
0.00230128
0.00273086
0.00227759
0.0022671
0.00140839
0.0124259
0.00238692
0.00240905
0.0024605
0.00294247
0.00243382
0.00242275
0.00223267
0.0123875
0.00256366
0.00258584
0.00263943
0.00284762
0.0026113
0.002602
0.00243528
0.0123347
0.00277292
0.00278927
0.00284755
0.00305305
0.00281713
0.00280792
0.00264062
0.0122196
0.00301801
0.00302423
0.003089
0.0033215
0.00305523
0.00304666
0.00287316
0.0119696
0.00330465
0.00330021
0.00337333
0.00365716
0.00333528
0.00332779
0.00314996
0.0115098
0.00364578
0.0036297
0.00371077
0.0040856
0.0036689
0.00366386
0.00349444
0.010746
0.00405948
0.0040286
0.00406992
0.00449493
0.00407167
0.00407178
0.00390358
0.00950807
0.00456799
0.0045209
0.00456046
0.00503184
0.00453678
0.00457673
0.00440326
0.00764157
0.00520939
0.00514053
0.00517252
0.00558558
0.00514536
0.00521659
0.0050217
0.00564943
0.00604794
0.00594629
0.00596187
0.00639338
0.00593161
0.006054
0.00580979
0.00696164
0.00719592
0.00704055
0.00702293
0.00739755
0.00698992
0.00720136
0.00687559
0.00854535
0.0088607
0.00861124
0.00855343
0.0087465
0.00863521
0.00886829
0.00840672
0.0111111
0.0115029
0.0110661
0.0111687
0.0110203
0.0110836
0.011519
0.0109109
0.0193952
0.0163429
0.0164293
0.0155321
0.0156755
0.0154358
0.0163842
0.0193952
0.0334558
0.027594
0.0277339
0.0277999
0.0251113
0.0276776
0.027705
0.0334558
0.00664812
0.00175116
0.00177942
0.00197055
0.0132227
0.0017794
0.0017512
0.00664521
0.006755
0.00190804
0.0019081
0.00200388
0.0147879
0.00190289
0.00190811
0.00675119
0.00686117
0.00195634
0.00201231
0.00202686
0.0163831
0.00201613
0.00200571
0.00685865
0.00701785
0.00209309
0.00213532
0.00215397
0.0644217
0.00214669
0.00212763
0.00702489
0.0130495
0.0022456
0.002274
0.00229137
0.0760719
0.00227272
0.00226651
0.00141995
0.0124229
0.00239093
0.00240627
0.00244996
0.250023
0.00242839
0.00242086
0.00223653
0.0123754
0.00256823
0.00258388
0.00260842
0.00260518
0.00260078
0.00244235
0.0123188
0.00277746
0.00278745
0.00281389
0.00281086
0.00280714
0.00264814
0.0121824
0.00302112
0.00302243
0.00305123
0.00304848
0.00304613
0.00288693
0.0119389
0.00330484
0.00329862
0.00333145
0.00332831
0.00332737
0.00316394
0.0114871
0.00364717
0.00362783
0.00366443
0.00366119
0.0036635
0.00350137
0.0107237
0.00405943
0.00402596
0.00406424
0.00406243
0.00407113
0.00390853
0.0094932
0.00456735
0.00451655
0.00455266
0.0045267
0.00457567
0.004407
0.00763383
0.00520914
0.00513441
0.00516132
0.00513332
0.00521516
0.00502825
0.00565472
0.00604765
0.00593852
0.00594485
0.00591568
0.00605307
0.00581525
0.00696832
0.00719545
0.0070311
0.00699844
0.0107524
0.0070478
0.00720136
0.00688265
0.00855533
0.00886033
0.00860033
0.0085204
0.00867665
0.00861086
0.0088689
0.00841727
0.0111256
0.0115015
0.0115562
0.0111084
0.010926
0.0110504
0.0115189
0.0109257
0.0194009
0.0163468
0.0164229
0.0154592
0.0154989
0.016487
0.0163894
0.0194009
0.0334594
0.0275887
0.0277164
0.0276068
0.0277674
0.0276735
0.0276893
0.0334594
0.00659816
0.00173411
0.00177464
0.00177289
0.00177297
0.00177467
0.00173414
0.00659841
0.00667477
0.00188936
0.00192977
0.00190993
0.00188536
0.00192982
0.00188939
0.00667509
0.00676025
0.00199008
0.00200271
0.00201318
0.00200476
0.00200785
0.00199009
0.00676047
0.00691269
0.00206752
0.00212695
0.00213618
0.0021398
0.00213176
0.00211205
0.00691229
0.00721473
0.00221865
0.00226502
0.00227472
0.00226248
0.00227031
0.00224537
0.00721545
0.0129951
0.00237802
0.00241984
0.00240965
0.00241662
0.00242494
0.0023967
0.0015615
0.0123629
0.0025535
0.00259961
0.00258644
0.00259289
0.00258407
0.00257386
0.0024101
0.012277
0.00275928
0.00280575
0.00279074
0.00279756
0.00278807
0.00277685
0.00264557
0.0121242
0.00299854
0.0030447
0.00302586
0.00303357
0.00302055
0.00301176
0.00288338
0.0118699
0.00327641
0.00332618
0.00330274
0.00331173
0.00329674
0.00328834
0.00315466
0.0114175
0.00361205
0.00366237
0.00363253
0.00364296
0.00362564
0.00361812
0.00347783
0.0106503
0.00401549
0.00406997
0.00403066
0.00404232
0.00402316
0.00401784
0.00387957
0.00939805
0.00451314
0.00457463
0.00452077
0.00453319
0.00451259
0.00451215
0.00436672
0.00751809
0.00514119
0.00521457
0.00513805
0.0051506
0.00512952
0.00513823
0.00496406
0.00549305
0.00596214
0.00605458
0.00594245
0.00595356
0.00593374
0.00595701
0.00573484
0.00677457
0.00708177
0.00720375
0.00703622
0.00704553
0.00702885
0.00707331
0.00679679
0.00922473
0.0086998
0.00887616
0.00860617
0.00861592
0.00888218
0.00868786
0.00922473
0.0125241
0.0112578
0.0115283
0.0115559
0.011559
0.0115321
0.0112412
0.0125241
0.0192017
0.0160668
0.0163877
0.016385
0.0163856
0.0163855
0.0160417
0.0192017
0.0334793
0.0337973
0.0276612
0.0275557
0.0275365
0.027611
0.0337973
0.0334793
0.00646726
0.00160693
0.00172939
0.00173917
0.00173781
0.00173224
0.0016166
0.00645782
0.00643677
0.00175837
0.00188493
0.00189315
0.00189162
0.00188822
0.00176913
0.00642258
0.00641989
0.00185701
0.00198576
0.00199304
0.00199139
0.00198934
0.00186771
0.00640386
0.00641476
0.00198411
0.00210773
0.00211216
0.00211364
0.0021121
0.00199168
0.00640485
0.00648007
0.0021268
0.00224161
0.00224624
0.00224714
0.00224562
0.00212881
0.00645725
0.00635431
0.0022144
0.00239545
0.00239894
0.00239987
0.00239833
0.00236182
0.00635707
0.00631524
0.00237397
0.00257176
0.00257591
0.00257669
0.00257517
0.00251934
0.0063148
0.00625596
0.00257871
0.0027744
0.00277898
0.0027798
0.00277821
0.00271595
0.00625659
0.00619726
0.00281528
0.00300914
0.00301411
0.00301497
0.00301323
0.00294356
0.00619538
0.00610759
0.00311315
0.00328548
0.00329114
0.003292
0.00329008
0.00321253
0.00610521
0.0060029
0.00341127
0.00361514
0.00362149
0.00362246
0.00362036
0.00353101
0.00599957
0.0058751
0.00378796
0.00401466
0.00402176
0.00402277
0.00402068
0.00391629
0.00587152
0.00573303
0.00433831
0.00450906
0.00451665
0.00451766
0.00451582
0.00439076
0.00573218
0.00568333
0.0049787
0.00513601
0.00514368
0.00514493
0.00514335
0.00498837
0.00568773
0.0059284
0.0057529
0.00595653
0.00596502
0.00596634
0.00596519
0.00576646
0.00592757
0.00728351
0.00682203
0.00707616
0.00708593
0.00708665
0.00708723
0.00683897
0.00728367
0.0091769
0.00923653
0.00869234
0.00870605
0.00870758
0.00870864
0.00923653
0.00917687
0.0125393
0.0125511
0.0112457
0.0112643
0.0112655
0.01127
0.0125511
0.0125393
0.0192074
0.019251
0.0160454
0.0160742
0.0160758
0.0160851
0.019251
0.0192074
0.0334695
0.0335161
0.0337951
0.0337998
0.0337998
0.0337951
0.0335161
0.0334695
0.00876516
0.00644806
0.00660297
0.00659929
0.00660284
0.00660991
0.00644416
0.00876418
0.00852174
0.00640056
0.00667626
0.00668018
0.00668521
0.00668541
0.00639634
0.0085269
0.00829033
0.00636781
0.00675903
0.00676578
0.0067709
0.00676607
0.00636753
0.00831455
0.00800525
0.0063382
0.00690894
0.00690631
0.006907
0.00689829
0.00635854
0.00810204
0.0078356
0.00634908
0.00721654
0.00714959
0.00712631
0.00712449
0.006335
0.00781703
0.00837612
0.00618923
0.00154297
0.00158148
0.0015814
0.00158666
0.00619992
0.0083797
0.0087636
0.00610736
0.00239153
0.00242017
0.0024164
0.00242127
0.00611335
0.00876122
0.00844155
0.00605508
0.00262512
0.00265653
0.00265235
0.00265709
0.00605483
0.00844135
0.00816542
0.00603096
0.00287528
0.00289184
0.00288827
0.0028932
0.00603431
0.00816574
0.00777801
0.00596029
0.00315272
0.00316807
0.00316511
0.00316857
0.00596089
0.0077775
0.00721031
0.00590461
0.00347396
0.00349759
0.0034955
0.00349636
0.00590604
0.00720948
0.00647842
0.00581268
0.00385034
0.00389454
0.00389363
0.00389212
0.00581446
0.00647729
0.00558437
0.00570991
0.00432684
0.00437865
0.00437839
0.00437896
0.00571118
0.00558343
0.00494674
0.00568629
0.00496021
0.00497892
0.00497893
0.00498042
0.00568533
0.00494694
0.00607185
0.00592514
0.00574837
0.00575387
0.00575384
0.00575636
0.00592532
0.00607182
0.0072537
0.00728325
0.00681539
0.00682175
0.00682141
0.00682575
0.00728322
0.0072537
0.00917887
0.00917725
0.00922835
0.00922599
0.00922599
0.00922835
0.00917726
0.00917887
0.012532
0.0125435
0.0125343
0.012527
0.012527
0.0125343
0.0125435
0.012532
0.0191996
0.0192233
0.0192155
0.0192018
0.0192018
0.0192155
0.0192233
0.0191996
0.0334721
0.0334924
0.0334813
0.03347
0.03347
0.0334813
0.0334924
0.0334721
0.00408607
0.00401528
0.00446496
0.00367767
0.00402361
0.0037108
0.00446461
0.00401529
0.00367769
0.00402362
0.00449525
0.00449334
0.00499493
0.00407799
0.00450094
0.00406994
0.00499536
0.00449343
0.004078
0.00450095
0.00503134
0.00508716
0.00556217
0.00456817
0.0050953
0.00456052
0.00556397
0.00508717
0.00456818
0.0050953
0.00558372
0.00585062
0.00636301
0.00517984
0.00585567
0.00517253
0.00636578
0.00585066
0.00517985
0.00585567
0.00639061
0.0068704
0.00736108
0.00596647
0.00686947
0.0142793
0.0059619
0.00736249
0.00687044
0.00596648
0.0142888
0.00686948
0.00739619
0.008326
0.00865679
0.0070212
0.0134695
0.00831582
0.00880837
0.00702298
0.0086572
0.00832606
0.013475
0.00702121
0.00880837
0.00831582
0.00874615
0.010579
0.0106423
0.0085434
0.00884677
0.0104134
0.0106007
0.00855344
0.0106425
0.0105791
0.00884677
0.0085434
0.0106007
0.0104133
0.00365798
0.00393756
0.00395337
0.00368651
0.0039015
0.00398306
0.00427443
0.00364383
0.00395356
0.00393751
0.00390139
0.00368651
0.00427431
0.00398309
0.00406202
0.00440752
0.00442448
0.00409163
0.00433124
0.00448331
0.00482349
0.00404586
0.0044247
0.00440744
0.00433115
0.00409165
0.00482338
0.00448332
0.00455907
0.00499512
0.00501287
0.00455061
0.00485596
0.00507769
0.00541756
0.00454175
0.00501312
0.00499502
0.00485587
0.0045506
0.00541814
0.00507767
0.00518407
0.00575251
0.00577044
0.0051632
0.00546004
0.00584232
0.00620029
0.00516598
0.00577082
0.00575237
0.00546067
0.00516318
0.00620127
0.00584233
0.00599494
0.00676572
0.0067833
0.00595367
0.00625549
0.00686443
0.00720268
0.00597706
0.0067839
0.00676553
0.00625647
0.00595364
0.00720315
0.00686441
0.00709362
0.00820089
0.00821763
0.00701753
0.00727391
0.00832464
0.00852569
0.00707636
0.00821848
0.00820049
0.00727435
0.0070175
0.00852598
0.0083246
0.0036569
0.00362084
0.0040267
0.00334417
0.00363274
0.00337337
0.00402637
0.00362086
0.00334421
0.00363276
0.00366891
0.00392118
0.00396369
0.00363183
0.00367414
0.00392351
0.00400085
0.0036297
0.00396368
0.00392117
0.00367412
0.00363183
0.00400086
0.00392354
0.00407168
0.00438761
0.00446999
0.00403096
0.00405504
0.00438921
0.00447434
0.0053524
0.00428239
0.00471843
0.00445669
0.00489345
0.0040286
0.00447006
0.00438763
0.00405506
0.00403099
0.00447434
0.00438922
0.00453672
0.0049707
0.00506049
0.00452259
0.00454103
0.00497241
0.00506489
0.00621983
0.00469459
0.00528788
0.0049353
0.00557417
0.0045209
0.00506053
0.00497062
0.00454103
0.0045226
0.0050649
0.00497241
0.00514532
0.00572299
0.00582067
0.00514177
0.00514901
0.00572372
0.00582225
0.00648765
0.0052586
0.00544421
0.00519727
0.00557382
0.00606814
0.00546835
0.00726915
0.00529379
0.00594803
0.00561305
0.00675304
0.00514049
0.00582073
0.005723
0.00514902
0.00514177
0.00582225
0.00572372
0.00593155
0.00673108
0.00683782
0.0059469
0.00593285
0.00673187
0.00683545
0.00740703
0.006036
0.00631893
0.00598483
0.00644915
0.00696415
0.00633959
0.00814483
0.00607922
0.00683476
0.00649409
0.00771265
0.00594629
0.00683792
0.00673108
0.00593285
0.0059469
0.00683545
0.00673187
0.00698983
0.00815728
0.008289
0.00704133
0.00698687
0.00815913
0.00828154
0.00813414
0.00706686
0.00752429
0.00703871
0.00762972
0.00786382
0.00753519
0.00852987
0.0071086
0.00799947
0.00766365
0.00843379
0.00704055
0.0082891
0.00815715
0.00698687
0.00704132
0.00828155
0.00815908
0.00401005
0.00364748
0.00363864
0.00394024
0.00398193
0.00366442
0.00401006
0.00363863
0.00364745
0.00398192
0.00394026
0.00448565
0.00404786
0.00403589
0.00440679
0.00445591
0.00406425
0.00448566
0.00403589
0.00404787
0.00445592
0.00440678
0.00507727
0.00454024
0.00452288
0.00499
0.00504766
0.00455266
0.00507726
0.00452288
0.00454023
0.00504768
0.00499001
0.00583449
0.00515941
0.00513261
0.00574232
0.00581161
0.00516133
0.00583447
0.00513264
0.00515944
0.00581145
0.00574236
0.00684678
0.0119682
0.00596625
0.00592304
0.00675497
0.0067696
0.00594484
0.0119744
0.00684676
0.00592291
0.00596625
0.00676967
0.00675499
0.0107495
0.00829274
0.00860258
0.00706486
0.0070793
0.00818946
0.00820385
0.00699843
0.0086026
0.00829272
0.00707951
0.00706486
0.00820394
0.00818942
0.00451288
0.00433917
0.00422565
0.00406077
0.320534
0.00484958
0.00457708
0.172963
0.00392527
0.0042768
0.00411266
0.00435676
0.00404467
0.00386819
0.0042288
0.00388876
0.00458474
0.0040364
0.0046258
0.00435035
0.00497591
0.00414078
0.00450362
0.00433835
0.00422571
0.00406088
0.320035
0.00483765
0.0045756
0.17267
0.00392538
0.0042756
0.00411279
0.00462382
0.00435043
0.00497552
0.0041409
0.00435604
0.00404468
0.00386821
0.00422891
0.00388875
0.00458481
0.00403651
0.00536455
0.00428233
0.0047179
0.00445666
0.0049058
0.00543806
0.00475135
0.00466214
0.00443596
0.00554826
0.00486857
0.00409927
0.00425768
0.00424976
0.00461879
0.00427102
0.00447223
0.00512846
0.00438241
0.00503474
0.00462016
0.0049035
0.00452174
0.00430999
0.00474496
0.00433115
0.00517111
0.00450464
0.00515151
0.00491741
0.00558878
0.00465612
0.00542659
0.00475186
0.00466214
0.00443595
0.00554799
0.00512684
0.00438248
0.00503437
0.00462019
0.0048687
0.00409927
0.00425779
0.00424978
0.00461889
0.004271
0.00447238
0.00514989
0.00491757
0.00558678
0.00465615
0.0049036
0.00452173
0.00431
0.00474513
0.00433114
0.00517109
0.00450477
0.00622812
0.0046946
0.00528635
0.00493533
0.00557442
0.00567312
0.00484847
0.00521657
0.00511208
0.00494271
0.00487304
0.00604349
0.00625833
0.00532425
0.00525118
0.00497276
0.00672799
0.00567318
0.00458885
0.00478135
0.00478102
0.00520896
0.00480173
0.00504811
0.00627985
0.00495657
0.0056138
0.00524097
0.0056966
0.00511602
0.00485626
0.00538474
0.00487692
0.00606592
0.00508848
0.00630854
0.00559389
0.00675641
0.00528351
0.0062543
0.00532591
0.00525112
0.00497273
0.00672621
0.00567117
0.0048485
0.00521641
0.00511206
0.00494258
0.00487303
0.00604285
0.00627399
0.00495682
0.00561178
0.00524113
0.00567093
0.00458884
0.00478154
0.00478105
0.00520891
0.00480172
0.00504832
0.00630522
0.00559407
0.00675438
0.00528365
0.00569495
0.00511599
0.00485628
0.00538498
0.0048769
0.006065
0.00508869
0.00727286
0.00529387
0.00594543
0.00561312
0.00675484
0.00651686
0.00553968
0.00598113
0.00587374
0.0056207
0.00556386
0.00693387
0.00730901
0.00597006
0.00602418
0.00566058
0.00767462
0.0065101
0.00520111
0.0054294
0.00545025
0.00609081
0.00547197
0.00575546
0.00729643
0.00564048
0.00678372
0.00597465
0.00653882
0.00587735
0.00554623
0.00615821
0.00556757
0.00694956
0.00580364
0.00733116
0.00637119
0.00768599
0.00602326
0.00648645
0.00525843
0.00544424
0.00519725
0.00557365
0.0060675
0.00546833
0.00730487
0.00597268
0.0060241
0.0056605
0.00767707
0.00651567
0.0055397
0.00598096
0.00587372
0.00562053
0.00556383
0.00693355
0.00729465
0.00564068
0.00678168
0.00597484
0.00650871
0.00520107
0.00542966
0.00545025
0.00608991
0.00547194
0.00575571
0.007329
0.00637141
0.00768644
0.00602346
0.00653737
0.00587732
0.00554625
0.00615845
0.00556754
0.00694838
0.00580389
0.00814525
0.0060793
0.00683259
0.00649416
0.00771096
0.00743527
0.00644752
0.0069936
0.00688776
0.00651235
0.00646751
0.00783804
0.00816568
0.00686204
0.00703579
0.00655734
0.00842699
0.00741858
0.0059884
0.00621121
0.00632144
0.00697962
0.00634283
0.00659833
0.0081412
0.00642069
0.00772202
0.00678111
0.00744676
0.00689063
0.00644946
0.00708942
0.00647073
0.00785108
0.00665673
0.00816089
0.00721673
0.00837388
0.00683376
0.00740689
0.00603583
0.00631896
0.0059848
0.00644901
0.0069637
0.00633957
0.0081656
0.00686411
0.0070357
0.00655728
0.00842731
0.00743519
0.00644755
0.00699357
0.00688771
0.00651221
0.00646748
0.00783845
0.00813977
0.00642089
0.00772212
0.00678139
0.00741736
0.00598837
0.00621144
0.00632145
0.00697834
0.00634283
0.00659854
0.00815972
0.00721705
0.00837283
0.00683407
0.00744555
0.00689059
0.00644946
0.00708954
0.0064707
0.00785008
0.00665693
0.00852888
0.0071086
0.00799809
0.0076636
0.00843336
0.00854553
0.00807699
0.00842867
0.00774937
0.00892322
0.00812185
0.00704134
0.00715472
0.00751986
0.00787289
0.00753755
0.00766564
0.00851525
0.00727422
0.00905435
0.0083755
0.00773187
0.00853077
0.00898082
0.0084355
0.00887637
0.0078064
0.00813454
0.00706689
0.00752433
0.00703868
0.00762969
0.00786423
0.00753515
0.00854653
0.0080782
0.00842874
0.00774943
0.00892357
0.00851461
0.00727452
0.00905429
0.00837449
0.00773198
0.00812152
0.00704131
0.00715482
0.00751986
0.00787192
0.00753751
0.00766566
0.00853014
0.00898073
0.00843549
0.00887621
0.00780646
0.00867544
0.0104006
0.010408
0.00855243
0.00862641
0.0104188
0.010625
0.00865779
0.0104093
0.0104006
0.0086267
0.0085524
0.0106253
0.0104192
0.00332116
0.00329773
0.00360986
0.00306313
0.00330639
0.00308902
0.00361014
0.00329775
0.00306313
0.00330642
0.00445578
0.00385518
0.00427173
0.103177
0.00400784
0.00417844
0.306712
0.00481635
0.00418525
0.00424167
0.00409574
0.00435856
0.00457095
0.00426729
0.00564977
0.00467286
0.00477331
0.00458514
0.00490562
0.00516014
0.00479788
0.000735656
0.00492005
0.00513323
0.00502302
0.00205751
0.00554692
0.00575359
0.00568315
0.00635522
0.00659781
0.00653003
0.0073678
0.00770222
0.00758063
0.00950057
0.00853565
0.00949407
0.0093492
0.00896256
0.00361952
0.00331566
0.00330829
0.0035589
0.00359392
0.00333149
0.0036195
0.00330829
0.00331567
0.00359391
0.00355889
0.0038697
0.00405051
0.00383732
0.00371103
0.00369516
0.00388117
0.00430718
0.00452944
0.00427021
0.00412286
0.00409791
0.00432952
0.004848
0.00512097
0.004803
0.00462394
0.00459008
0.004876
0.00550896
0.00583635
0.00547174
0.00523747
0.00520168
0.00555171
0.00628282
0.00665184
0.00633579
0.00600552
0.00598341
0.00639779
0.00717388
0.00847178
0.00767196
0.00752651
0.00706716
0.00702984
0.0075522
0.00867664
0.0103722
0.0105589
0.00864557
0.00866084
0.0103658
0.010388
0.00852038
0.0105589
0.0103722
0.00866093
0.00864553
0.0103882
0.0103658
0.00446547
0.00385519
0.00427251
0.103461
0.00400781
0.00418553
0.307284
0.00432527
0.00369713
0.00383586
0.00381875
0.00413025
0.00383896
0.00401032
0.00324763
0.0788329
0.00336703
0.0021654
0.00205783
0.00327307
0.0788392
0.00342358
0.00432467
0.00369712
0.00383598
0.00381876
0.00413013
0.00383895
0.00401044
0.00215497
0.00207032
0.00485316
0.0043021
0.00460667
0.00451811
0.00441855
0.00432736
0.00512112
0.00454301
0.00488727
0.00488698
0.0145866
0.00479081
0.00422026
0.002178
0.00211758
0.00146164
0.00481592
0.00418519
0.00424174
0.00409573
0.00435848
0.00457174
0.00426729
0.00455566
0.00488759
0.00488693
0.014535
0.00479073
0.00239385
0.00420872
0.00485274
0.00430218
0.00460656
0.00451811
0.00441846
0.00432736
0.00512059
0.002084
0.0015252
0.00147464
0.00492006
0.0051324
0.00502302
0.00171388
0.00542008
0.00550187
0.00537252
0.00564679
0.00467279
0.00477334
0.00458514
0.0049055
0.00515964
0.00479787
0.00542154
0.00550194
0.00537258
0.00554687
0.00575128
0.00568315
0.00617234
0.00630038
0.00603509
0.00617506
0.00630031
0.00603519
0.00635527
0.00659513
0.00653003
0.00711944
0.00729828
0.00709585
0.0111713
0.0112769
0.00872485
0.00961674
0.00712115
0.0072984
0.00709589
0.0111721
0.0112818
0.00872448
0.00961571
0.00736765
0.00769998
0.00758043
0.00819006
0.00770865
0.00834262
0.00832788
0.00771667
0.0077174
0.00862934
0.0117003
0.00839932
0.00856685
0.0144248
0.00829545
0.0107594
0.00864586
0.0108248
0.00836468
0.00817548
0.00833129
0.00770337
0.00834131
0.00771997
0.00861751
0.00774643
0.0117139
0.0153587
0.00882548
0.0086331
0.00848426
0.00989148
0.0116996
0.00839994
0.00856706
0.0144018
0.00829579
0.0107599
0.00819044
0.0077087
0.0083427
0.00832781
0.00771665
0.00771736
0.0086293
0.00864545
0.0108281
0.0083641
0.0117128
0.015358
0.00882539
0.008633
0.00848404
0.00989167
0.00817524
0.00833127
0.00770338
0.00834128
0.0077199
0.00861754
0.00774645
0.00950059
0.0085355
0.00949381
0.00934914
0.00896224
0.0094879
0.00862242
0.00946231
0.00891794
0.00932966
0.0094879
0.00862243
0.00946231
0.00891791
0.00932963
0.00418286
0.00450636
0.00435636
0.00423947
0.00408907
0.00406748
0.00426073
0.00461343
0.00460492
0.00441641
0.00429992
0.00451151
0.00432107
0.00449104
0.004183
0.00450628
0.00435646
0.00423929
0.00408898
0.00406738
0.00426065
0.00461314
0.00460505
0.00441651
0.0042997
0.00451142
0.00432099
0.00449089
0.00467107
0.00510207
0.00489831
0.00477132
0.00457878
0.00455838
0.0047911
0.00513971
0.00521034
0.00493563
0.0048466
0.00510428
0.00486589
0.00508623
0.00467119
0.00510227
0.00489841
0.0047712
0.00457866
0.00455825
0.00479097
0.00513996
0.00521044
0.00493573
0.00484646
0.00510412
0.00486575
0.00508607
0.00525275
0.00578505
0.00556933
0.00544462
0.00518933
0.00517159
0.00546175
0.00583318
0.00597818
0.00561649
0.00554083
0.00586864
0.00555765
0.00585218
0.00525283
0.00578597
0.00556943
0.00544444
0.00518915
0.00517142
0.00546156
0.00583412
0.00597828
0.00561658
0.00554065
0.00586842
0.00555745
0.00585198
0.00603308
0.00667156
0.00644846
0.00632293
0.00597896
0.00596299
0.0063386
0.00673294
0.00699475
0.00651176
0.00645202
0.00688884
0.00646758
0.00687393
0.00603318
0.00667231
0.00644857
0.00632269
0.00597873
0.00596278
0.00633836
0.00673365
0.00699482
0.00651188
0.00645176
0.00688858
0.00646732
0.00687374
0.00706871
0.00780764
0.00763478
0.00752966
0.00704142
0.00702748
0.00754209
0.00788966
0.00836076
0.00772295
0.00771303
0.00833534
0.0077247
0.00832568
0.00706888
0.0078079
0.00763493
0.0075294
0.00704115
0.00702727
0.00754179
0.00788992
0.00836088
0.00772309
0.00771276
0.00833501
0.00772439
0.00832545
0.00397344
0.0322792
0.00355249
0.00436448
0.0642252
0.0037061
0.16068
0.00389982
0.00423398
0.00400332
0.0521604
0.00372891
0.00397262
0.0323141
0.00355272
0.00437172
0.064259
0.00370626
0.160418
0.00389994
0.0042328
0.00400232
0.052174
0.00372905
0.00584946
0.00479107
0.00514283
0.0046913
0.00577037
0.0059409
0.00462042
0.0046366
0.00087791
0.00454587
0.00262612
0.00581918
0.00538421
0.00154174
0.00444315
0.00015334
0.00533017
0.00690972
0.000523855
0.00381707
0.00398476
0.0054283
0.00591278
0.00529242
1.56667e-05
0.00517117
0.00517169
0.00505894
0.00174352
0.0161253
0.00462104
0.00214254
0.00585525
0.00512631
0.0010952
0.00524922
0.0223871
0.00541272
0.005885
0.00628436
0.00560138
0.00573297
0.00555184
0.00546056
0.00536761
0.00625618
0.00554538
0.00528137
0.0052357
0.00568438
0.00541496
0.00603767
0.00701659
0.00585264
0.00547581
0.00542617
0.00561075
0.00560914
0.00575103
0.00577655
0.00587682
0.0057293
0.00596065
0.00547172
0.0058
0.00565491
0.00580292
0.00698116
0.00566244
0.00582724
0.00624371
0.00679298
0.00720274
0.00647568
0.00661015
0.00642575
0.00629485
0.00618509
0.00717315
0.00637441
0.00606727
0.00601503
0.00654999
0.00623671
0.00696157
0.00797413
0.00675141
0.0062734
0.0062512
0.0064633
0.00644797
0.00663281
0.00662675
0.0067743
0.00658963
0.00688331
0.0063105
0.006693
0.00650805
0.00666322
0.00794682
0.00651356
0.00672113
0.00727146
0.00790205
0.0073755
0.00708269
0.00704242
0.00757656
0.00730715
0.00814146
0.00839491
0.00777306
0.0117356
0.00729168
0.0073366
0.00746586
0.00751075
0.00766645
0.00777151
0.00788036
0.0076543
0.0127017
0.00838246
0.00750654
0.00773945
0.00386964
0.00405042
0.00383731
0.00371102
0.00369517
0.00388116
0.00427701
0.0040774
0.00388699
0.0040947
0.00390682
0.00404321
0.00427707
0.00407748
0.00388702
0.00409471
0.00390683
0.00404327
0.00430713
0.00452943
0.00427017
0.00412284
0.00409786
0.00432947
0.00481053
0.00456312
0.00433059
0.00458941
0.00436052
0.00452246
0.00481054
0.00456308
0.00433063
0.00458944
0.00436056
0.00452256
0.00484797
0.00512091
0.00480295
0.00462392
0.00459004
0.00487596
0.00546364
0.00516212
0.00487849
0.00519487
0.00491422
0.00511714
0.0054637
0.00516216
0.00487854
0.00519493
0.00491426
0.00511722
0.00550889
0.00583632
0.00547168
0.00523742
0.00520159
0.00555165
0.00623174
0.00588429
0.00556713
0.00595265
0.00559879
0.00587424
0.00623178
0.00588431