/*--------------------------------*- C++ -*----------------------------------*\
| =========                 |                                                 |
| \\      /  F ield         | OpenFOAM: The Open Source CFD Toolbox           |
|  \\    /   O peration     | Version:  v1906                                 |
|   \\  /    A nd           | Web:      www.OpenFOAM.com                      |
|    \\/     M anipulation  |                                                 |
\*---------------------------------------------------------------------------*/
FoamFile
{
    version     2.0;
    format      ascii;
    class       volScalarField;
    location    "1000";
    object      nut;
}
// * * * * * * * * * * * * * * * * * * * * * * * * * * * * * * * * * * * * * //

dimensions      [0 2 -1 0 0 0 0];


internalField   nonuniform List<scalar> 
270674
(
0.000188679
0.000185227
0.000182625
0.000182651
0.000182651
0.000182623
0.000185215
0.00018859
0.000188308
0.000184027
0.000181151
0.000181194
0.000181194
0.000181148
0.000184014
0.000188229
0.000187927
0.000183176
0.000180274
0.000180335
0.000180335
0.000180271
0.000183163
0.000187883
0.000187322
0.000182069
0.000179296
0.000179373
0.000179373
0.000179292
0.000182057
0.000187351
0.000186405
0.000180808
0.000188657
0.000188628
0.000188597
0.000188676
0.000180797
0.000186574
0.000185056
0.000179421
0.000188038
0.000188004
0.000187966
0.000188058
0.000179413
0.000185483
0.000183122
0.000177797
0.000187862
0.000187811
0.000187766
0.000187875
0.000177794
0.000183994
0.000180267
0.000175787
0.00018761
0.00018754
0.000187492
0.000187613
0.000175792
0.000181887
0.000176852
0.000173331
0.000187198
0.000187145
0.0001871
0.00018722
0.000173357
0.000179613
0.000175852
0.000170379
0.000186519
0.000186495
0.000186463
0.000186551
0.000170448
0.000179377
0.000174227
0.000166963
0.000185335
0.000185362
0.000185349
0.000185392
0.00016707
0.000178283
0.000172507
0.000163102
0.00018323
0.000183315
0.000183327
0.0001833
0.000163072
0.000174352
0.00016992
0.000158611
0.000179434
0.000179552
0.000179586
0.000179483
0.000158566
0.00016957
0.000163359
0.000153875
0.000172383
0.000172514
0.000172562
0.000172364
0.000153883
0.000163437
0.000157907
0.000150919
0.0001592
0.000159628
0.000159642
0.000159165
0.000150917
0.00015789
0.000160619
0.000154261
0.000154704
0.000155253
0.000155254
0.00015463
0.000154261
0.000160621
0.000159394
0.000157415
0.000157005
0.000157591
0.000157591
0.00015692
0.000157415
0.000159394
0.000161798
0.000162066
0.000160343
0.000160954
0.000160953
0.000160244
0.000162066
0.000161798
0.000168414
0.000168401
0.000165282
0.000165698
0.000165695
0.000165181
0.000168401
0.000168414
0.000175819
0.000175821
0.000175919
0.000172978
0.000172974
0.000175919
0.000175821
0.000175819
0.000185167
0.000134839
0.000137696
0.000137777
0.000137778
0.000137692
0.000134818
0.000185194
0.000183988
0.000136279
0.000138785
0.000137684
0.000137862
0.000138781
0.000136256
0.000184021
0.000183149
0.000137146
0.000138685
0.000138634
0.000138723
0.000138679
0.000137122
0.000183185
0.000182054
0.000138148
0.000139751
0.000139601
0.000139615
0.000139699
0.000138123
0.000182093
0.000180804
0.000136751
0.000140759
0.00014061
0.000140573
0.000140683
0.000138258
0.000180845
0.000179443
0.000138094
0.000141509
0.000141368
0.000141332
0.000141436
0.00013925
0.000179484
0.000177833
0.000139084
0.000142304
0.000142163
0.000142126
0.000142232
0.000140076
0.000177869
0.000175801
0.00014055
0.000143221
0.000143116
0.000143082
0.000143166
0.000141141
0.00017583
0.000173374
0.000142395
0.000144333
0.0001442
0.000144165
0.000144257
0.000143093
0.000173387
0.000170541
0.00014457
0.00014554
0.000145377
0.00014534
0.000145434
0.000144875
0.000170513
0.000167168
0.000145878
0.000146715
0.000146612
0.000146595
0.000146643
0.000146001
0.000167102
0.000163205
0.000147519
0.000147973
0.00014795
0.000147951
0.000147956
0.000147544
0.000163181
0.000158682
0.000149201
0.000149409
0.00014941
0.000149419
0.000149406
0.00014916
0.000158682
0.000154018
0.00015086
0.000150989
0.000151021
0.000151025
0.000151005
0.000150792
0.000154018
0.000150823
0.000152814
0.000152823
0.000152839
0.000152842
0.000152833
0.000152812
0.000150823
0.00015422
0.000154961
0.000154973
0.000154984
0.000154984
0.00015498
0.00015496
0.00015422
0.000157387
0.000157593
0.000157601
0.000157606
0.000157605
0.000157605
0.00015759
0.000157387
0.000162052
0.000160979
0.000160994
0.000160996
0.000160987
0.000160996
0.000160983
0.000162052
0.000168386
0.000165737
0.000165768
0.000165775
0.000165765
0.000165777
0.00016575
0.000168386
0.000175821
0.000173034
0.000173081
0.000173072
0.00017307
0.000173082
0.000173063
0.000175821
0.000182615
0.000137804
0.000138632
0.000138827
0.000139055
0.000138632
0.00013779
0.000182611
0.000181144
0.000138904
0.000139184
0.000139616
0.00013984
0.000139434
0.00013889
0.000181145
0.000180264
0.000139584
0.000139892
0.00014025
0.000140477
0.000140055
0.00013957
0.000180267
0.000179281
0.000139778
0.000140602
0.00014092
0.00014115
0.00014072
0.000140566
0.000179283
0.000188667
0.00014084
0.000141307
0.000141632
0.000141865
0.000141431
0.000141275
0.000119468
0.000188185
0.000141542
0.000142063
0.000142204
0.000142378
0.000142188
0.000142021
0.000139269
0.000187998
0.000142342
0.000142873
0.000143021
0.000143201
0.000142997
0.000142831
0.00014075
0.000187737
0.000143286
0.000143745
0.000143889
0.000144071
0.00014387
0.000143703
0.000141711
0.000187303
0.00014435
0.000144685
0.000144823
0.000145007
0.000144811
0.000144643
0.000142616
0.000186679
0.000145478
0.000145708
0.000145836
0.000146023
0.000145833
0.000145667
0.000143866
0.000185483
0.000146664
0.000146832
0.000146949
0.000147135
0.000146806
0.000146793
0.000145074
0.000183332
0.000147958
0.000148077
0.000148177
0.000148355
0.000148029
0.000148039
0.000146417
0.000179417
0.000149406
0.000149466
0.000149541
0.0001497
0.000149389
0.000149431
0.000147849
0.000172167
0.000150997
0.00015104
0.000151076
0.000151215
0.00015092
0.000151008
0.000149484
0.000158791
0.000152819
0.000152851
0.000152834
0.000152953
0.000152677
0.000152827
0.000151265
0.000154091
0.000154971
0.000154995
0.0001549
0.000154997
0.000154739
0.000154976
0.000153326
0.000156352
0.000157598
0.000157624
0.000157412
0.000157489
0.000157242
0.000157606
0.000155847
0.000159871
0.000160984
0.000161022
0.000160616
0.000160674
0.000160451
0.000160997
0.000159374
0.000168571
0.000165746
0.000165807
0.000164958
0.000164985
0.000165813
0.000165774
0.000168571
0.000175819
0.000173062
0.000173124
0.000173066
0.000173173
0.000173099
0.000173114
0.000175819
0.000182639
0.000137855
0.000138616
0.000141739
0.000158292
0.000139134
0.000137854
0.000182639
0.000181161
0.000138902
0.000139401
0.000142541
0.000160312
0.000139866
0.000138902
0.000181161
0.000180283
0.000138734
0.000140074
0.000143239
0.000162157
0.000140505
0.000139937
0.000180283
0.00017931
0.000139764
0.00014074
0.000143966
0.000159431
0.000141178
0.00014057
0.000179309
0.000188694
0.000140753
0.00014145
0.000142791
0.000161536
0.000141911
0.000141303
0.000120152
0.000188209
0.000141382
0.000142049
0.000143573
0.00016328
0.000142655
0.000142051
0.000139578
0.00018802
0.000142214
0.00014286
0.000144316
0.000152088
0.000143438
0.000142863
0.000141067
0.000187744
0.000143201
0.000143728
0.000145162
0.000151579
0.0001443
0.000143736
0.000142016
0.000187283
0.000144287
0.00014466
0.000146095
0.000152634
0.000145234
0.000144678
0.000142924
0.000186499
0.000145427
0.000145672
0.00014711
0.000154462
0.000146249
0.000145703
0.000143982
0.000185026
0.000146647
0.000146782
0.000148185
0.000157166
0.000147348
0.000146829
0.000145185
0.00018227
0.000147979
0.000148004
0.000148854
0.000158497
0.00014853
0.000148072
0.000146488
0.00017701
0.00014942
0.000149368
0.00015011
0.000159779
0.000149807
0.000149461
0.000147943
0.000166706
0.000151011
0.000150902
0.000151534
0.000159433
0.000151235
0.000151034
0.000149544
0.0001499
0.00015283
0.000152662
0.000153177
0.000160705
0.000152893
0.000152846
0.000151308
0.000153745
0.000154979
0.000154733
0.000155076
0.000161068
0.000154832
0.00015499
0.00015337
0.000156373
0.000157604
0.000157243
0.000157383
0.000160753
0.000157356
0.000157615
0.000155891
0.000159907
0.000160989
0.000160444
0.000160707
0.000160774
0.000160486
0.000161007
0.000159417
0.000168572
0.000165752
0.000165829
0.000165002
0.00016517
0.000164835
0.000165788
0.000168572
0.00017582
0.000173074
0.000173141
0.00017319
0.000171588
0.000173111
0.000173128
0.00017582
0.000182676
0.000138053
0.000138356
0.000151004
0.00068173
0.000138358
0.000138055
0.000182682
0.000181189
0.000139046
0.00013947
0.000145127
0.00069462
0.000138703
0.000139049
0.000181193
0.000180309
0.000139011
0.00014003
0.000139825
0.000707098
0.000139897
0.00013994
0.000180311
0.000179335
0.00013992
0.000140694
0.00014192
0.00128208
0.000141007
0.000140575
0.000179335
0.00018883
0.000140851
0.000141404
0.000142459
0.00128383
0.000141766
0.000141298
0.000120422
0.00018828
0.00014147
0.00014202
0.000143254
0.00176254
0.000142511
0.000142038
0.000139553
0.000188092
0.000142302
0.000142834
0.000143704
0.000143295
0.000142855
0.000141091
0.000187819
0.000143275
0.000143702
0.00014456
0.000144161
0.000143731
0.00014204
0.000187354
0.000144331
0.000144635
0.000145489
0.000145094
0.000144674
0.000143018
0.000186542
0.000145428
0.000145648
0.000146509
0.000146107
0.000145699
0.000144065
0.000185053
0.000146663
0.000146757
0.000147608
0.000147204
0.000146825
0.00014523
0.000182274
0.00014798
0.000147978
0.00014879
0.000148399
0.000148068
0.000146526
0.000176999
0.000149416
0.000149337
0.000150089
0.000149728
0.000149457
0.000147975
0.000166686
0.000151011
0.000150869
0.000151538
0.000151194
0.000151029
0.000149583
0.000149932
0.000152829
0.000152627
0.000153155
0.000152848
0.000152843
0.000151337
0.000153774
0.000154979
0.000154696
0.000154985
0.000204289
0.000154841
0.00015499
0.0001534
0.000156406
0.000157603
0.000157207
0.000157258
0.000160214
0.000157262
0.000157617
0.000155925
0.00015994
0.000160989
0.000161067
0.000160548
0.000160477
0.000160403
0.00016101
0.000159451
0.000168578
0.000165757
0.000165823
0.00016488
0.000164923
0.000165892
0.000165793
0.000168578
0.000175821
0.000173071
0.000173132
0.000173074
0.000173173
0.000173109
0.00017312
0.000175821
0.000183271
0.00013742
0.00013853
0.000138025
0.00013803
0.000138531
0.00013742
0.00018327
0.00018182
0.000138413
0.00013946
0.000139532
0.000137768
0.00013946
0.000138413
0.000181819
0.000180925
0.000139036
0.000139892
0.000140047
0.000139413
0.000139971
0.000139036
0.000180925
0.000179893
0.000139206
0.000140568
0.000140709
0.000140832
0.000140635
0.000140131
0.000179892
0.000178997
0.000140217
0.000141277
0.000141416
0.000141461
0.000141345
0.000140775
0.000179
0.000188979
0.000141121
0.000142019
0.000142072
0.000142191
0.000142088
0.000141486
0.00012238
0.000188251
0.000141941
0.000142836
0.000142872
0.000142987
0.000142837
0.000142297
0.000140242
0.000187972
0.000142886
0.000143712
0.000143742
0.000143858
0.000143706
0.000143164
0.000141791
0.000187506
0.000143908
0.000144656
0.000144675
0.000144792
0.000144617
0.000144097
0.000142791
0.000186664
0.000144964
0.000145685
0.000145689
0.000145809
0.00014563
0.000145114
0.000143844
0.000185139
0.000146165
0.000146814
0.000146797
0.000146919
0.000146738
0.000146228
0.000144962
0.000182293
0.000147445
0.000148059
0.000148015
0.000148138
0.000147959
0.000147459
0.000146259
0.000176902
0.000148853
0.000149452
0.00014937
0.000149489
0.000149316
0.000148835
0.000147688
0.000166357
0.00015042
0.000151027
0.000150895
0.000151003
0.000150847
0.000150392
0.00014923
0.000148978
0.000152219
0.000152845
0.000152647
0.000152731
0.000152606
0.000152185
0.000150972
0.000152925
0.00015434
0.000154993
0.000154708
0.000154764
0.000154682
0.000154298
0.000153094
0.000157528
0.000156925
0.000157626
0.000157212
0.000157248
0.000157638
0.000156879
0.000157528
0.00016204
0.000160271
0.00016102
0.000161064
0.000161069
0.000161025
0.000160221
0.00016204
0.000168393
0.000165219
0.00016579
0.000165787
0.000165785
0.000165787
0.000165171
0.000168393
0.000175825
0.000175936
0.000173106
0.000173051
0.000173041
0.000173079
0.000175936
0.000175825
0.000185384
0.000134502
0.00013738
0.000137534
0.000137509
0.000137434
0.000134698
0.000185436
0.000184158
0.000135672
0.000138375
0.00013849
0.000138465
0.00013843
0.000135863
0.000184205
0.000183289
0.000136402
0.000138998
0.000139092
0.000139067
0.000139053
0.000136577
0.000183328
0.000182164
0.00013729
0.000140048
0.000140125
0.000140148
0.000140135
0.000137399
0.00018219
0.000180909
0.000138311
0.000140721
0.000140785
0.000140796
0.000140787
0.000138423
0.000180983
0.000179608
0.000138628
0.000141481
0.000141508
0.000141514
0.00014151
0.000140721
0.000179596
0.000177812
0.000139451
0.000142282
0.00014232
0.000142326
0.000142322
0.000141341
0.000177819
0.000175767
0.000140586
0.000143149
0.000143188
0.000143193
0.000143189
0.000142209
0.000175771
0.000173326
0.000141761
0.000144085
0.000144122
0.000144128
0.000144122
0.000143143
0.000173328
0.000170496
0.000143179
0.000145103
0.00014514
0.000145146
0.00014514
0.00014418
0.000170495
0.000167145
0.00014423
0.000146219
0.000146256
0.000146262
0.000146255
0.000145289
0.00016714
0.000163204
0.000145521
0.000147451
0.000147489
0.000147494
0.000147489
0.000146516
0.000163196
0.000158646
0.00014749
0.00014883
0.000148866
0.000148871
0.000148867
0.000147876
0.000158645
0.000154013
0.000149293
0.000150393
0.000150424
0.000150429
0.000150426
0.0001494
0.000154034
0.000150897
0.000151036
0.000152192
0.000152221
0.000152225
0.000152225
0.000151151
0.000150893
0.000154271
0.000153164
0.000154314
0.000154341
0.000154342
0.000154347
0.000153277
0.000154271
0.000157411
0.000157551
0.000156898
0.000156925
0.000156928
0.000156935
0.000157551
0.000157411
0.000162062
0.000162075
0.000160239
0.000160268
0.000160268
0.000160281
0.000162075
0.000162062
0.000168397
0.000168429
0.000165186
0.000165217
0.000165218
0.000165231
0.000168429
0.000168397
0.000175821
0.000175836
0.000175935
0.000175936
0.000175936
0.000175935
0.000175836
0.000175821
0.000188682
0.000185272
0.000183309
0.000183318
0.000183313
0.000183313
0.000185278
0.00018865
0.000187846
0.000183993
0.000181874
0.000181879
0.000181879
0.000181889
0.000183993
0.000187799
0.000186957
0.000183067
0.000180986
0.000180995
0.000180999
0.000181009
0.000183063
0.000186897
0.000185655
0.000181847
0.00017996
0.000179969
0.000179976
0.000179981
0.000181839
0.000185563
0.000184332
0.00018044
0.000179073
0.000179051
0.000179048
0.000179049
0.00018051
0.000184393
0.000184858
0.000178849
0.000121795
0.000122897
0.000122934
0.000123001
0.00017882
0.000184846
0.000184848
0.000176725
0.000139906
0.000140367
0.000140344
0.000140357
0.000176722
0.000184853
0.000183079
0.000174426
0.000141481
0.000141912
0.000141887
0.000141898
0.000174415
0.000183079
0.000180851
0.000172036
0.000142656
0.000142897
0.000142876
0.000142909
0.000172037
0.000180851
0.000177694
0.000169537
0.000143737
0.000143942
0.000143925
0.000143952
0.000169538
0.000177694
0.000173148
0.000166708
0.000144857
0.000145094
0.000145082
0.000145094
0.000166711
0.000173148
0.000166573
0.0001631
0.000146035
0.00014637
0.000146363
0.00014636
0.000163104
0.00016657
0.000157323
0.000158653
0.000147455
0.000147779
0.000147777
0.000147784
0.000158657
0.00015732
0.00014775
0.000154028
0.000149224
0.000149324
0.000149323
0.000149333
0.000154023
0.000147751
0.000152019
0.000150868
0.000151049
0.000151069
0.000151068
0.000151082
0.000150868
0.000152019
0.000154088
0.000154275
0.000153174
0.000153193
0.000153192
0.000153209
0.000154275
0.000154088
0.000157435
0.000157415
0.000157537
0.00015753
0.00015753
0.000157537
0.000157415
0.000157435
0.000162052
0.000162067
0.000162053
0.000162042
0.000162042
0.000162053
0.000162067
0.000162052
0.000168392
0.000168409
0.000168402
0.000168392
0.000168392
0.000168402
0.000168409
0.000168392
0.000175822
0.000175829
0.000175825
0.000175822
0.000175822
0.000175825
0.000175829
0.000175822
0.000157177
0.000148705
0.000158437
0.000147854
0.000148849
0.000148185
0.000158429
0.000148705
0.000147855
0.00014885
0.000158504
0.000149945
0.000159676
0.000149
0.000150119
0.000148854
0.000159686
0.000149945
0.000149
0.000150119
0.000159768
0.000151343
0.000159369
0.000150289
0.000151554
0.00015011
0.000159404
0.000151343
0.000150289
0.000151554
0.000159397
0.000152958
0.000160627
0.000151745
0.000153155
0.000151534
0.000160673
0.000152958
0.000151745
0.000153155
0.000160659
0.000154822
0.00016105
0.000153367
0.00015493
0.000215598
0.000153177
0.00016107
0.000154822
0.000153367
0.000215806
0.000154931
0.00016105
0.000157063
0.000160882
0.00015517
0.000233768
0.00015706
0.000162998
0.000155076
0.000160886
0.000157063
0.000233815
0.00015517
0.000162998
0.00015706
0.00016075
0.000160002
0.00016047
0.000157374
0.000162224
0.000159821
0.000160352
0.000157383
0.00016047
0.000160002
0.000162224
0.000157374
0.000160352
0.000159821
0.000147134
0.000147858
0.000148038
0.000147648
0.000153305
0.000148517
0.000154296
0.000146949
0.000148039
0.000147858
0.000153303
0.000147648
0.000154292
0.000148517
0.000148354
0.000149186
0.000149349
0.000148817
0.000154413
0.000149775
0.000156097
0.000148177
0.00014935
0.000149185
0.00015441
0.000148817
0.000156095
0.000149775
0.000149699
0.000150673
0.000150816
0.000149944
0.00015613
0.000151198
0.000156932
0.000149541
0.000150817
0.000150673
0.000156128
0.000149944
0.000156943
0.000151198
0.000151214
0.00015237
0.000152493
0.000151391
0.000156993
0.000152835
0.000158204
0.000151075
0.000152494
0.000152369
0.000157004
0.000151391
0.000158219
0.000152835
0.000152952
0.000154347
0.000154449
0.000153057
0.000158288
0.000154735
0.000159121
0.000152834
0.000154451
0.000154347
0.000158303
0.000153057
0.000159126
0.000154735
0.000154996
0.000156731
0.00015681
0.000154996
0.000159151
0.000157031
0.000159239
0.000154899
0.000156812
0.00015673
0.000159156
0.000154996
0.00015924
0.00015703
0.000154442
0.000147914
0.000156783
0.000146787
0.000147718
0.000147111
0.000156778
0.000147914
0.000146789
0.000147719
0.000147348
0.000147687
0.000148225
0.000146795
0.000147424
0.0001477
0.000148464
0.000146782
0.000148225
0.000147687
0.000147424
0.000146795
0.000148464
0.0001477
0.00014853
0.000149013
0.000149641
0.000148018
0.000148618
0.000149024
0.000149717
0.000171471
0.000153401
0.000159016
0.000153717
0.000165209
0.000148004
0.000149641
0.000149013
0.000148618
0.000148018
0.000149717
0.000149024
0.000149806
0.000150499
0.000151044
0.000149379
0.000149885
0.000150509
0.000151142
0.000178546
0.000152945
0.000159999
0.000153267
0.000170612
0.000149368
0.000151044
0.000150499
0.000149885
0.000149379
0.000151142
0.000150509
0.000151235
0.000152198
0.000152671
0.000150911
0.000151333
0.000152204
0.000152763
0.000169228
0.000153359
0.000152124
0.000151966
0.000153935
0.000168257
0.000152547
0.000183194
0.000153965
0.000160191
0.000154574
0.000181365
0.000150902
0.000152672
0.000152198
0.000151333
0.000150911
0.000152763
0.000152204
0.000152893
0.000154179
0.000154571
0.000152668
0.000152981
0.000154184
0.000154615
0.000169058
0.000154768
0.000153853
0.000153574
0.000155451
0.000169375
0.00015422
0.000179757
0.000155411
0.000160962
0.000156061
0.000181356
0.000152662
0.000154571
0.000154179
0.000152981
0.000152668
0.000154615
0.000154184
0.000154831
0.000156563
0.000156868
0.000154737
0.000154868
0.000156568
0.000156859
0.000163566
0.000156316
0.000155876
0.000155365
0.000156977
0.000167174
0.000156099
0.000167879
0.00015682
0.000161732
0.000157343
0.000174572
0.000154733
0.000156868
0.000156563
0.000154868
0.000154737
0.000156859
0.000156568
0.000148637
0.000146963
0.000147088
0.000147863
0.000148142
0.000147608
0.000148637
0.000147088
0.000146963
0.000148142
0.000147863
0.000149918
0.000148178
0.0001483
0.000149176
0.000149463
0.000148791
0.000149919
0.0001483
0.000148178
0.000149463
0.000149176
0.000151348
0.000149528
0.000149638
0.000150647
0.000150933
0.000150089
0.000151348
0.000149639
0.000149528
0.000150933
0.000150648
0.000152943
0.000151045
0.00015113
0.000152327
0.000152594
0.000151538
0.000152943
0.00015113
0.000151045
0.000152594
0.000152327
0.00015474
0.000218804
0.000152788
0.000152818
0.000154293
0.000154436
0.000153155
0.000218863
0.00015474
0.000152818
0.000152788
0.000154436
0.000154293
0.00020426
0.000156935
0.000160555
0.000154841
0.000154967
0.000156666
0.000156749
0.000154985
0.000160555
0.000156935
0.000154967
0.000154841
0.000156749
0.000156666
0.000161427
0.000158673
0.000153268
0.000152833
0.00139104
0.000164903
0.000163745
0.00148651
0.00015451
0.000160438
0.000155289
0.000160614
0.000149276
0.000148411
0.00015336
0.000148856
0.000161521
0.000152771
0.000164308
0.000156297
0.000168287
0.000155403
0.000161121
0.000158647
0.000153269
0.000152835
0.00138876
0.000164516
0.000163723
0.0014844
0.000154514
0.000160396
0.000155293
0.000164279
0.000156299
0.00016826
0.000155406
0.000160605
0.000149275
0.000148411
0.000153363
0.000148856
0.000161526
0.000152774
0.000171823
0.000153399
0.000158997
0.000153716
0.000165604
0.000172937
0.000159075
0.000152903
0.000152413
0.000170429
0.000162649
0.000149418
0.00015345
0.000149464
0.000161657
0.000149851
0.000154135
0.000166979
0.000156442
0.000169045
0.000157509
0.000162743
0.000150462
0.000149624
0.000154992
0.00015
0.00016359
0.00015424
0.000167115
0.000158692
0.000171238
0.000157669
0.000172604
0.000159093
0.000152903
0.000152412
0.000170421
0.000166946
0.000156444
0.000169019
0.00015751
0.000162651
0.000149418
0.000153453
0.000149464
0.000161662
0.000149851
0.000154138
0.000167085
0.000158695
0.000171185
0.00015767
0.000162745
0.000150462
0.000149624
0.000154996
0.00015
0.000163589
0.000154244
0.000178723
0.000152946
0.000159966
0.000153268
0.00017062
0.000167129
0.000150796
0.000153285
0.000151778
0.000152794
0.000151236
0.000168217
0.000178907
0.000159995
0.000153885
0.000153338
0.000181379
0.000167483
0.000150622
0.000155103
0.000150814
0.000163668
0.000151123
0.000155862
0.000179906
0.000158831
0.000171404
0.000159733
0.000167552
0.000151838
0.000150996
0.000156683
0.000151297
0.000168572
0.000155968
0.000180048
0.000160585
0.000181945
0.000159847
0.000178826
0.000160031
0.000153884
0.000153337
0.000181344
0.000167092
0.000150797
0.000153281
0.000151778
0.000152791
0.000151236
0.00016821
0.000179782
0.000158837
0.000171349
0.000159736
0.000167438
0.000150622
0.000155108
0.000150815
0.000163667
0.000151123
0.000155867
0.000179983
0.000160588
0.000181905
0.00015985
0.000167519
0.000151838
0.000150996
0.000156688
0.000151297
0.000168558
0.000155972
0.000183268
0.000153966
0.000160144
0.000154575
0.0001814
0.000169289
0.000152325
0.000154672
0.000153362
0.000154023
0.000152745
0.000169372
0.000183383
0.000160186
0.000155319
0.000154666
0.000181283
0.000169549
0.000152026
0.00015678
0.000152334
0.000168614
0.000152605
0.00015737
0.000183639
0.00016068
0.000181969
0.000161158
0.0001696
0.000153415
0.000152535
0.000157798
0.000152802
0.000169586
0.000157439
0.000183722
0.000161216
0.000181369
0.0001612
0.000169212
0.000153356
0.000152124
0.000151966
0.000153932
0.00016825
0.000152547
0.000183299
0.000160233
0.000155318
0.000154665
0.00018134
0.000169273
0.000152325
0.000154669
0.000153362
0.000154019
0.000152745
0.000169366
0.000183616
0.000160684
0.000181929
0.000161161
0.000169528
0.000152026
0.000156785
0.000152334
0.0001686
0.000152604
0.000157374
0.00018369
0.00016122
0.000181389
0.000161204
0.000169578
0.000153414
0.000152535
0.000157802
0.000152802
0.000169567
0.000157443
0.000179763
0.000155412
0.000160928
0.000156062
0.000181313
0.000168992
0.000154087
0.000156223
0.00015513
0.000155548
0.000154442
0.000167306
0.000179522
0.00016092
0.000156742
0.000156152
0.000175018
0.000169238
0.000153625
0.000157829
0.000154015
0.000169586
0.000154263
0.000157971
0.0001796
0.00016116
0.000181391
0.00016068
0.000169175
0.000155159
0.000154237
0.000157852
0.000154481
0.000167572
0.000157973
0.00017935
0.000159587
0.000174296
0.000160569
0.000169056
0.000154765
0.000153853
0.000153574
0.000155448
0.000169368
0.000154221
0.000179519
0.000160951
0.000156741
0.000156151
0.00017502
0.000168991
0.000154087
0.000156221
0.00015513
0.000155545
0.000154442
0.000167311
0.00017958
0.000161164
0.000181405
0.000160684
0.000169221
0.000153624
0.000157833
0.000154015
0.000169566
0.000154263
0.000157974
0.000179334
0.000159592
0.000174281
0.000160573
0.000169158
0.000155159
0.000154237
0.000157854
0.000154481
0.000167559
0.000157976
0.000167867
0.00015682
0.000161715
0.000157343
0.000174568
0.000167566
0.000161665
0.000157982
0.000157411
0.000164047
0.000163465
0.00015539
0.000157824
0.000155924
0.000167396
0.000156114
0.000157698
0.000167786
0.000159437
0.000174348
0.000173794
0.000158526
0.000167472
0.000172992
0.000158313
0.000163572
0.000158433
0.00016357
0.000156315
0.000155876
0.000155365
0.000156976
0.000167179
0.000156099
0.000167579
0.000161679
0.000157983
0.000157411
0.000164051
0.000167779
0.00015944
0.000174347
0.00017378
0.000158527
0.000163462
0.00015539
0.000157826
0.000155924
0.000167385
0.000156114
0.000157698
0.000167465
0.000172991
0.000158313
0.000163571
0.000158434
0.000157487
0.000159737
0.000159788
0.000157357
0.000159247
0.000159814
0.000160269
0.000157411
0.00015979
0.000159737
0.000159249
0.000157357
0.00016027
0.000159814
0.000152611
0.000146853
0.000154156
0.000145782
0.000146658
0.000146096
0.000154176
0.000146854
0.000145782
0.000146659
0.000160581
0.000152194
0.000158242
0.00107164
0.000152677
0.000158097
0.00177417
0.000161527
0.000151321
0.000149308
0.00014936
0.000151698
0.000160635
0.000149794
0.000167057
0.000152272
0.00015062
0.000150562
0.000152727
0.000162704
0.000151062
1.81834e-05
0.000157474
0.000159756
0.000157578
6.79816e-05
0.000158593
0.00015987
0.000158827
0.000159895
0.000160897
0.000160089
0.00016048
0.000161986
0.000160409
0.000160255
0.000158074
0.000160054
0.000158981
0.000163327
0.000147467
0.000145856
0.000145979
0.000146678
0.000146943
0.00014651
0.000147467
0.000145979
0.000145856
0.000146944
0.000146678
0.000153063
0.000153731
0.000148716
0.000148978
0.000148287
0.000149551
0.000154652
0.000155457
0.000149936
0.000150332
0.000149463
0.000150964
0.000156538
0.000157336
0.000151296
0.000151783
0.000150771
0.000152412
0.000158258
0.000158773
0.000152755
0.000153199
0.000152201
0.000153779
0.000158976
0.000158781
0.000154267
0.000154451
0.000153692
0.000155226
0.00015811
0.000167915
0.000157798
0.000155993
0.000155841
0.000155296
0.000156344
0.000160214
0.000159678
0.0001601
0.000157343
0.000157417
0.00015964
0.000159702
0.000157258
0.0001601
0.000159678
0.000157417
0.000157343
0.000159702
0.00015964
0.00016091
0.000152194
0.000158266
0.0010741
0.000152677
0.000158343
0.00177698
0.00016048
0.000148301
0.000152152
0.00014827
0.000159928
0.000148718
0.000152693
0.000137053
0.000772739
0.000141039
6.90211e-05
6.91875e-05
0.000138073
0.00077279
0.000143235
0.000160468
0.000148301
0.000152155
0.00014827
0.000159923
0.000148718
0.000152697
6.83958e-05
6.94181e-05
0.00016167
0.000149463
0.00015215
0.000150402
0.000151817
0.000149942
0.000162596
0.000158334
0.000159393
0.000157441
0.000192794
0.00015738
7.07839e-05
7.37043e-05
6.24378e-05
4.13774e-05
0.000161519
0.00015132
0.000149309
0.00014936
0.000151696
0.000160665
0.000149794
0.000158816
0.000159402
0.00015744
0.000191885
0.000157379
8.10103e-05
7.04809e-05
0.00016166
0.000149464
0.000152147
0.000150402
0.000151815
0.000149942
0.000162583
6.10626e-05
4.2949e-05
3.62446e-05
0.000157473
0.000159738
0.000157578
5.66052e-05
0.000159215
0.000158498
0.000158226
0.000167
0.00015227
0.00015062
0.000150562
0.000152724
0.000162692
0.000151062
0.000159245
0.000158499
0.000158227
0.000158592
0.000159827
0.000158828
0.000160398
0.000159832
0.000158105
0.000160445
0.000159831
0.000158107
0.000159896
0.000160855
0.000160089
0.000161001
0.000160482
0.000160482
0.000230484
0.000226932
0.00017896
0.000194352
0.000161026
0.000160484
0.000160483
0.000230506
0.000227011
0.000178955
0.000194334
0.000160478
0.000161957
0.000160407
0.000163224
0.000156158
0.000157651
0.000157187
0.000157069
0.000156356
0.000160695
0.00019885
0.000161242
0.000159802
0.000218221
0.000159974
0.000184014
0.000177442
0.000200611
0.000170554
0.000163085
0.000157199
0.000156192
0.000157806
0.00015637
0.000160575
0.000157693
0.000198808
0.000229104
0.000166701
0.000160878
0.00016261
0.000174818
0.000198837
0.000161248
0.000159804
0.000218036
0.000159977
0.000184022
0.000163228
0.000156158
0.00015765
0.000157187
0.000157068
0.000156356
0.000160695
0.000177437
0.000200656
0.000170546
0.000198797
0.000229095
0.0001667
0.000160877
0.000162608
0.00017482
0.000163084
0.000157199
0.000156192
0.000157807
0.00015637
0.000160575
0.000157693
0.000160255
0.000158073
0.000160053
0.000158981
0.000163324
0.000160115
0.000158716
0.000159892
0.000162866
0.000158936
0.000160115
0.000158716
0.000159892
0.000162866
0.000158936
0.000151191
0.000154697
0.000151565
0.000149265
0.000149192
0.000148808
0.000149622
0.000156064
0.000152015
0.00015168
0.00014942
0.000150212
0.000149767
0.000149895
0.000151193
0.000154695
0.000151567
0.000149265
0.000149192
0.000148808
0.000149622
0.000156057
0.000152017
0.000151682
0.00014942
0.000150211
0.000149767
0.000149895
0.000152132
0.000156442
0.000152528
0.000150561
0.000150365
0.000150058
0.000150838
0.000156499
0.000153105
0.000152599
0.000150736
0.00015152
0.000151002
0.000151285
0.000152133
0.000156446
0.00015253
0.000150561
0.000150365
0.000150058
0.000150838
0.000156504
0.000153107
0.0001526
0.000150736
0.000151519
0.000151001
0.000151285
0.000153186
0.000157565
0.000153788
0.00015207
0.000151702
0.000151476
0.000152276
0.000157648
0.00015455
0.000153879
0.000152274
0.000153097
0.000152474
0.000152911
0.000153188
0.000157581
0.00015379
0.00015207
0.000151702
0.000151476
0.000152275
0.000157664
0.000154551
0.000153881
0.000152273
0.000153097
0.000152473
0.000152911
0.000154648
0.000158759
0.00015535
0.000153817
0.000153312
0.000153131
0.000153987
0.000158797
0.00015615
0.000155451
0.000154054
0.000154949
0.00015422
0.000154797
0.000154649
0.000158769