/*--------------------------------*- C++ -*----------------------------------*\
| =========                 |                                                 |
| \\      /  F ield         | OpenFOAM: The Open Source CFD Toolbox           |
|  \\    /   O peration     | Version:  v1906                                 |
|   \\  /    A nd           | Web:      www.OpenFOAM.com                      |
|    \\/     M anipulation  |                                                 |
\*---------------------------------------------------------------------------*/
FoamFile
{
    version     2.0;
    format      ascii;
    class       volScalarField;
    location    "1000";
    object      p;
}
// * * * * * * * * * * * * * * * * * * * * * * * * * * * * * * * * * * * * * //

dimensions      [0 2 -2 0 0 0 0];


internalField   nonuniform List<scalar> 
270674
(
-0.00907918
-0.000448308
-0.00268582
-0.00126009
-0.00131902
-0.00266774
-0.000493556
-0.00904856
-0.0178266
0.00249059
0.00746022
0.012452
0.0124046
0.00748879
0.00239589
-0.017829
-0.0362735
-0.000805104
-0.0243971
-0.00254875
-0.00264636
-0.0243616
-0.00103995
-0.036274
-0.0453214
-0.00781298
-0.10172
-0.0647283
-0.0648812
-0.101663
-0.00825622
-0.0453817
-0.0425388
0.00416486
-0.0578082
-0.0517725
-0.0434126
-0.0471116
0.00393784
-0.0426943
-0.0459153
0.0057779
-0.0313082
-0.0190339
-0.0106466
-0.0133599
0.00558446
-0.0461141
-0.0532034
0.00156659
-0.0311334
-0.0159801
-0.00696331
-0.00970261
0.00135554
-0.0535126
-0.0666528
-0.0127697
-0.0496003
-0.0360119
-0.0268076
-0.0281995
-0.0130193
-0.0670355
-0.0841162
-0.0367087
-0.084576
-0.0783555
-0.0706768
-0.0668837
-0.0370276
-0.0848216
-0.104424
-0.0716065
-0.132241
-0.14232
-0.139213
-0.123984
-0.0721524
-0.105563
-0.123118
-0.112398
-0.185477
-0.217872
-0.223063
-0.193073
-0.113747
-0.123227
-0.134165
-0.148995
-0.231676
-0.291077
-0.306765
-0.257815
-0.149731
-0.132697
-0.130534
-0.167483
-0.254145
-0.335828
-0.360739
-0.296042
-0.167743
-0.129117
-0.10992
-0.159412
-0.237745
-0.326383
-0.354637
-0.286961
-0.15958
-0.109262
-0.0773734
-0.123764
-0.177741
-0.250348
-0.273883
-0.221086
-0.123815
-0.0769204
-0.0364757
-0.0685135
-0.0988117
-0.14194
-0.15605
-0.127721
-0.0685369
-0.0362336
0.00662385
-0.00660411
-0.00583695
-0.0113862
-0.0129273
-0.0147176
-0.00660342
0.00677866
0.0416788
0.0478725
0.0755262
0.101336
0.109841
0.0848809
0.0478772
0.0417701
0.060472
0.0836214
0.134044
0.171484
0.184773
0.154089
0.0836274
0.0605323
0.057383
0.0897174
0.153456
0.192209
0.206163
0.153463
0.0897239
0.0574242
-0.00233274
0.0155454
0.0181457
0.0116466
0.0117762
0.0180791
0.0155793
-0.00237777
-0.00174608
0.0374601
-0.0168077
-0.0135693
-0.01125
-0.0167375
0.0374945
-0.00184512
-0.00453473
0.0593419
-0.00914942
0.0263379
0.0324183
0.0264748
0.0594709
-0.00475857
-0.0118767
0.0928362
0.0334736
0.0596109
0.0683417
0.0681352
0.0931789
-0.0123131
0.00173342
0.0162265
0.0390325
0.0659136
0.0749731
0.0715328
0.0573833
0.0012851
0.00282268
0.00956777
0.0341683
0.0660246
0.0776819
0.0655299
0.0440914
0.00240798
-0.00183141
0.000315499
0.0294103
0.0702958
0.0857254
0.0631891
0.0342194
-0.00221784
-0.0157717
-0.0133351
0.0143772
0.0642766
0.0846822
0.0519543
0.0185044
-0.0161834
-0.0386443
-0.0361468
-0.0187002
0.0325174
0.0567814
0.0181454
-0.01116
-0.039216
-0.0714323
-0.0712322
-0.079156
-0.0496959
-0.0251884
-0.0532802
-0.0607003
-0.0724107
-0.108259
-0.115474
-0.166272
-0.180698
-0.172309
-0.167613
-0.12892
-0.109369
-0.140071
-0.160758
-0.266879
-0.351988
-0.373545
-0.310041
-0.2043
-0.140756
-0.155058
-0.192632
-0.349466
-0.517502
-0.576537
-0.436729
-0.263784
-0.155353
-0.144629
-0.19653
-0.374524
-0.591543
-0.67119
-0.487663
-0.281167
-0.144787
-0.110132
-0.165396
-0.321111
-0.521406
-0.595933
-0.427425
-0.24231
-0.110197
-0.0580594
-0.104326
-0.196972
-0.3163
-0.360811
-0.26354
-0.15257
-0.0580922
0.000581503
-0.0287898
-0.0387649
-0.0443573
-0.0445866
-0.0477596
-0.0369332
0.000570961
0.0529639
0.0413817
0.101853
0.186173
0.218192
0.141345
0.0706709
0.0529623
0.0841681
0.0926463
0.189552
0.314246
0.354822
0.253339
0.14458
0.0841705
0.0892694
0.123194
0.233991
0.361111
0.400799
0.304274
0.181107
0.0892739
-0.00760987
0.0114837
0.000113868
0.0082066
0.00345974
0.000286934
0.0114209
-0.00760309
-0.00436868
0.0182745
-0.0252519
0.0250049
0.0251106
0.0256352
0.0181608
-0.00431251
-0.0234808
0.0103678
0.0235765
0.0513595
0.0619955
0.0588678
0.01011
-0.0233693
-0.092404
0.010022
0.053276
0.079928
0.0889455
0.0902057
0.0499634
-0.0925893
-0.0540653
0.0282841
0.0708893
0.125795
0.15191
0.120269
0.0691257
-0.00469255
-0.0339838
0.0262965
0.0909913
0.127112
0.152051
0.147692
0.0771152
0.00939755
-0.0353444
0.0211551
0.107965
0.182456
0.226559
0.174833
0.0797414
0.0137237
-0.0528425
0.00663033
0.115499
0.230693
0.311303
0.206639
0.0736608
0.00813057
-0.0833694
-0.0246261
0.0951704
0.260414
0.385744
0.208603
0.0458578
-0.00978041
-0.12351
-0.0796089
0.0173504
0.21507
0.361532
0.126648
-0.0201669
-0.042471
-0.166601
-0.159285
-0.151511
0.0163238
0.141538
-0.0731328
-0.132809
-0.0897725
-0.201215
-0.247662
-0.385173
-0.386612
-0.40161
-0.413667
-0.279183
-0.142795
-0.2135
-0.315353
-0.607362
-0.871698
-1.14911
-0.807569
-0.409421
-0.184505
-0.193038
-0.331295
-0.712226
-1.17636
-1.57937
-1.04987
-0.466455
-0.197235
-0.136577
-0.278557
-0.63485
-1.14563
-1.55525
-1.0031
-0.413329
-0.170983
-0.0664921
-0.165493
-0.378581
-0.755265
-1.04169
-0.648155
-0.254625
-0.110729
0.0153463
-0.0247795
-0.0333723
-0.108965
-0.113678
-0.0988713
-0.0414475
-0.0308615
0.0938558
0.0956373
0.251785
0.430139
0.659883
0.3539
0.146983
0.0408471
0.141255
0.17372
0.385085
0.654573
0.87317
0.571654
0.266369
0.141261
0.142894
0.21489
0.433983
0.756589
0.874941
0.593452
0.315309
0.142899
-0.00271893
0.0168325
0.0136352
0.0131053
0.00894825
0.0106413
0.0168949
-0.00277544
0.0081128
0.0324714
0.0279008
0.0456817
0.0470639
0.0471904
0.0326229
0.00803413
-0.00302144
0.0175182
0.0504399
0.10848
0.0745135
0.100997
0.0786925
-0.00317124
-0.0678153
0.0512429
0.0841433
0.0563497
0.140376
0.16151
0.0783007
-0.0679946
-0.0474644
0.0529606
0.106491
0.254803
0.256022
0.18807
0.110173
0.0117007
-0.0258043
0.0456428
0.100121
0.300687
0.37355
0.225031
0.119185
0.023136
-0.0272882
0.0432276
0.148982
0.295507
0.306182
0.265342
0.119391
0.0271424
-0.046804
0.0306017
0.178177
0.475512
0.69322
0.388895
0.1228
0.0220052
-0.0819211
-0.00466685
0.179891
0.7101
1.29167
0.52452
0.100125
0.00229012
-0.130973
-0.0752097
0.102006
0.771267
1.86036
0.520891
0.016669
-0.0377125
-0.185087
-0.183674
-0.107858
0.389948
1.90957
0.200281
-0.147135
-0.0990053
-0.230298
-0.30756
-0.425371
-0.448765
0.576502
-0.58654
-0.371622
-0.169593
-0.248645
-0.405039
-0.745506
-1.67542
-3.10668
-1.52975
-0.572932
-0.225659
-0.225406
-0.430744
-0.920423
-2.43143
-5.88437
-2.14676
-0.659828
-0.243038
-0.162232
-0.360767
-0.855427
-2.46516
-5.35483
-2.14765
-0.579648
-0.208832
-0.0763041
-0.203471
-0.528638
-1.76246
-4.61973
-1.45501
-0.330973
-0.128176
0.0251085
-0.00748475
-0.0428521
0.0417079
-0.958501
0.104282
0.000553155
-0.0232216
0.121598
0.153914
0.345873
1.65921
4.85396
1.08937
0.26626
0.0632199
0.177201
0.253155
0.636686
1.4563
2.44815
1.14518
0.400233
0.177197
0.177
0.296797
0.644336
1.25123
1.55454
0.928743
0.444069
0.176997
-0.00267035
0.0124282
0.0419346
0.000973127
0.0120363
0.0415925
0.01251
-0.00270444
0.00230329
0.0458962
0.0113603
0.0343318
0.0540227
0.10024
0.0458645
0.00219529
-0.0053247
0.0283316
0.0499858
0.116425
0.109154
0.133107
0.0861944
-0.0054965
-0.0528579
0.0566247
0.0961128
0.173138
-1.66735
0.229869
0.0892396
-0.0528077
-0.0414527
0.0596153
0.124058
0.282816
0.351659
0.252309
0.111977
0.0131762
-0.0240213
0.0489747
0.111709
0.393986
2.02163
0.287193
0.116211
0.0220059
-0.0259983
0.0423695
0.150651
0.2197
0.234526
0.113116
0.0248642
-0.0456372
0.025737
0.176844
0.443363
0.377387
0.110748
0.0188703
-0.0807895
-0.0131735
0.168218
0.723478
0.517812
0.0816214
-0.00166497
-0.128395
-0.0859293
0.0663669
0.667948
0.424736
-0.00860043
-0.041937
-0.180093
-0.190444
-0.162613
0.108128
-0.0250511
-0.170971
-0.100696
-0.221454
-0.303516
-0.47856
-0.923622
-0.80323
-0.372187
-0.165047
-0.235562
-0.38588
-0.765828
-1.91432
-1.62208
-0.538498
-0.213224
-0.209534
-0.399091
-0.901736
-2.42333
-2.07703
-0.596054
-0.224293
-0.146422
-0.324083
-0.808759
-2.43205
-2.0441
-0.502777
-0.188358
-0.0613318
-0.171543
-0.455665
-1.42509
-3.53366
-0.973081
-0.264506
-0.111348
0.0331726
0.00942304
0.0293849
0.516581
4.16467
0.386093
0.0334189
-0.0105791
0.123962
0.161448
0.471637
1.60479
4.42764
1.1011
0.260403
0.0700039
0.163617
0.250557
0.593121
1.42872
2.20446
0.937555
0.385072
0.163612
0.163551
0.294068
0.609372
1.13155
1.33507
0.855329
0.423299
0.163547
-0.00351948
0.00853884
0.00904477
0.035125
0.0347858
0.0091438
0.00858093
-0.00354348
-0.00482203
0.0184937
0.0209175
0.0599285
0.0864408
0.0206508
0.0185775
-0.00486769
-0.00369688
0.0177283
0.0422416
0.0891006
0.128682
0.102614
0.0177061
-0.00380364
-0.0271327
0.0343887
0.0675875
0.12776
0.172829
0.121467
0.0623609
-0.0272907
-0.0855916
0.0566067
0.0870365
0.161356
0.265158
0.146683
0.0663626
-0.0856394
-0.0429639
0.0447146
0.0982392
0.195067
0.285439
0.159377
0.0734662
-0.00421312
-0.0321
0.0265658
0.100189
0.189902
0.214185
0.168414
0.0706924
0.00575755
-0.0452338
0.0044025
0.0908395
0.232746
0.304065
0.185234
0.0574609
0.00147586
-0.0730383
-0.0323924
0.0519515
0.238576
0.364666
0.187137
0.0223011
-0.0164067
-0.109801
-0.0893802
-0.0448319
0.0998228
0.19408
0.0624585
-0.0493087
-0.0477289
-0.147652
-0.161621
-0.200084
-0.194654
-0.194152
-0.186516
-0.153818
-0.0887203
-0.17508
-0.232184
-0.377434
-0.578468
-0.70761
-0.509795
-0.267732
-0.129745
-0.180584
-0.2768
-0.513141
-0.911122
-1.15375
-0.789655
-0.352786
-0.157523
-0.155168
-0.273287
-0.545083
-1.05384
-1.36066
-0.905806
-0.370905
-0.159694
-0.101298
-0.214313
-0.440079
-0.905192
-1.1903
-0.774159
-0.302081
-0.132542
-0.0245265
-0.111294
-0.20671
-0.439963
-0.517782
-0.379734
-0.156955
-0.086285
0.0375928
0.0031733
0.0475453
0.171491
0.332133
0.116078
0.0202227
0.0375837
0.0922062
0.106077
0.250969
0.549454
0.687634
0.381377
0.164681
0.0921996
0.124298
0.167937
0.357507
0.649182
0.766297
0.49454
0.254877
0.124292
0.124147
0.222316
0.411779
0.654964
0.738858
0.524697
0.222313
0.124143
-0.00109685
0.00843411
0.00740006
0.00675316
0.00664415
0.00738186
0.00843171
-0.00110667
-0.00166398
0.0225905
0.0134188
0.0328733
0.0328567
0.0133502
0.0225905
-0.00166392
-0.0023001
0.0439755
0.0110173
0.06033
0.0602776
0.0107414
0.0436453
-0.00237326
-0.0055264
0.040984
0.0332312
0.067975
0.086284
0.0581721
0.0405612
-0.00564066
-0.0143168
0.0663605
0.0371057
0.0673289
0.0828276
0.0604064
0.0666797
-0.0142214
-0.00844986
0.0322493
0.0451022
0.0790287
0.0946144
0.0666229
0.0511792
-0.0084797
-0.0133547
0.0133029
0.0407543
0.0757384
0.0883185
0.0633723
0.0312016
-0.0133778
-0.0241746
-0.00672872
0.0252595
0.0654348
0.0769309
0.0493748
0.0113848
-0.0242073
-0.0418474
-0.0334587
-0.00816759
0.0300373
0.0361618
0.0116165
-0.0187488
-0.0418789
-0.0629136
-0.0691932
-0.063612
-0.0501243
-0.0454349
-0.0556492
-0.0630602
-0.0629422
-0.0837395
-0.109578
-0.136252
-0.161619
-0.168358
-0.149579
-0.117626
-0.0837669
-0.0978913
-0.145487
-0.209051
-0.279428
-0.300785
-0.247685
-0.169569
-0.097927
-0.0994843
-0.16538
-0.257598
-0.363604
-0.397075
-0.316465
-0.201972
-0.0995002
-0.0850967
-0.158997
-0.259812
-0.375668
-0.4142
-0.324877
-0.199219
-0.0850885
-0.0568397
-0.124074
-0.205604
-0.297842
-0.330625
-0.257974
-0.154684
-0.056843
-0.0190514
-0.0677152
-0.103673
-0.143788
-0.155045
-0.126041
-0.0716988
-0.0190566
0.0180747
0.0140794
0.022453
0.0492178
0.0618198
0.0325719
0.0140783
0.0180698
0.0521192
0.0679043
0.128607
0.206112
0.233988
0.160319
0.0679043
0.0521151
0.0729759
0.105787
0.195349
0.290924
0.323534
0.237612
0.105786
0.0729725
0.0751533
0.120247
0.207129
0.281677
0.281679
0.207128
0.120246
0.0751504
-0.00683061
-0.000758117
-0.00312943
-0.00124727
-0.00125855
-0.0031385
-0.000754951
-0.00684577
-0.0125688
-0.000829896
-0.0053556
-0.00401727
-0.00400231
-0.00534072
-0.000803748
-0.0125508
-0.0237679
-0.00055023
-0.00349083
0.00355661
0.00362026
-0.00344157
-0.00056904
-0.0237183
-0.0350949
-0.00569764
-0.0209199
-0.00697979
-0.00680479
-0.0210652
-0.00583796
-0.0353168
-0.0439299
-0.0164366
-0.0769468
-0.0597377
-0.0596789
-0.0769226
-0.0164959
-0.0442956
-0.0436141
-0.00981369
-0.0091305
0.00113096
0.00580069
-0.00784722
-0.00986246
-0.0438671
-0.048016
-0.0147423
-0.00293557
0.00802452
0.0115455
0.00152505
-0.0147742
-0.0481817
-0.0544749
-0.0247715
-0.00717564
0.00353684
0.00626939
-0.00289024
-0.024809
-0.0545902
-0.0635234
-0.0413028
-0.0219438
-0.0141716
-0.0124282
-0.0195149
-0.0413412
-0.063606
-0.0720505
-0.0608502
-0.0458554
-0.0455638
-0.0455049
-0.0471492
-0.0608811
-0.0721057
-0.0772253
-0.0795385
-0.0745035
-0.0852554
-0.0883923
-0.0815883
-0.0795658
-0.0772635
-0.075549
-0.0915181
-0.100724
-0.123651
-0.130423
-0.114196
-0.0915431
-0.0755789
-0.0649639
-0.0916352
-0.115947
-0.148124
-0.157722
-0.134009
-0.0916572
-0.0649902
-0.046741
-0.0767887
-0.112794
-0.147271
-0.157775
-0.131625
-0.0768127
-0.0467627
-0.0216854
-0.0491444
-0.0887953
-0.118699
-0.127559
-0.105539
-0.0491611
-0.0217013
0.00726516
-0.0121547
-0.0474774
-0.0689152
-0.0735456
-0.0631585
-0.0121644
0.00725271
0.033359
0.0237746
0.0469642
0.0606422
0.0606434
0.0469617
0.0237678
0.0333503
0.0546203
0.055953
0.0937802
0.119753
0.119756
0.0937786
0.0559485
0.0546137
0.0633524
0.0752767
0.122037
0.155152
0.155153
0.122035
0.0752733
0.0633474
0.056584
0.0766144
0.120426
0.152613
0.152614
0.120424
0.0766118
0.0565802
1.90933
-0.313673
0.703867
0.212642
-0.72263
0.390262
0.704095
-0.312983
0.212427
-0.722592
0.576501
-1.52982
-2.86718
-0.877433
-1.90484
-0.447571
-2.86713
-1.53014
-0.877326
-1.90504
-3.10659
-2.3738
-5.75466
-2.01789
-2.52122
-1.67564
-5.75437
-2.37389
-2.01814
-2.52148
-5.88461
-2.49029
-5.36361
-2.56608
-2.64929
-2.43156
-5.36362
-2.49045
-2.5663
-2.64927
-5.35481
-1.90555
-4.63669
-2.61062
-1.82789
-3.5985
-2.46521
-4.63669
-1.90558
-2.61059
-3.61565
-1.82786
-4.61975
-0.198822
-1.34025
-1.62008
-3.47791
0.309478
4.58175
-1.76241
-1.34033
-0.199635
-3.47141
-1.62004
4.58181
0.309695
-0.958518
1.0906
5.01972
0.562089
4.92743
1.88194
6.05424
0.0407365
5.01982
1.0906
4.92757
0.562338
6.05417
1.88207
0.141526
-0.26949
-0.238588
0.354971
1.46824
-0.272562
0.45904
0.0161191
-0.238559
-0.269464
1.46819
0.354912
0.459241
-0.272153
-0.401631
-0.755635
-0.953037
-0.541627
0.206459
-1.45209
-2.57678
-0.386517
-0.952922
-0.75531
0.206722
-0.541671
-2.57665
-1.45237
-1.14922
-1.1248
-1.5014
-1.60073
-2.80062
-2.23816
-5.21528
-0.871595
-1.5015
-1.12507
-2.80066
-1.60082
-5.21555
-2.23836
-1.57929
-1.18475
-1.6097
-2.31696
-5.35027
-2.3381
-5.02216
-1.17656
-1.60968
-1.18485
-5.3506
-2.31719
-5.02214
-2.33777
-1.55524
-0.882344
-1.20862
-2.33535
-4.95879
-1.74352
-4.20998
-1.14572
-1.20845
-0.882212
-4.95877
-2.33482
-4.20993
-1.74326
-1.04151
-0.277319
-0.365103
-1.62408
-4.11365
-0.216516
-1.01423
-0.75517
-0.365087
-0.277238
-4.11358
-1.62387
-1.01409
-0.216411
1.86035
0.5581
1.98407
0.754264
0.302431
0.770863
1.98416
0.558286
0.75592
0.302559
0.200591
-0.334494
-0.349076
-0.150329
0.0675547
-0.393848
-0.653963
-0.107929
-0.349291
-0.334607
0.0677429
-0.150392
-0.654042
-0.39396
-0.586354
-0.661054
-1.39905
-0.486484
-0.793805
-0.718812
-1.6436
-2.26165
-0.0396045
-0.817757
-1.06346
-0.444176
-0.425448
-1.39947
-0.661091
-0.794035
-0.486562
-1.6437
-0.718859
-1.52957
-0.878019
-2.0837
-0.800731
-1.74023
-0.918784
-2.18739
-5.18888
-2.42458
-4.54104
-3.36212
-4.45441
-0.745487
-2.08382
-0.878111
-1.74037
-0.800764
-2.18741
-0.918764
-2.14661
-0.876938
-2.16134
-0.955785
-2.22608
-0.893422
-2.25186
-4.6524
-3.90889
-2.51495
-2.80941
-3.97026
-5.04373
-2.88574
-4.72659
-4.14219
-5.94359
-4.22979
-5.33879
-0.92044
-2.16147
-0.876974
-2.2261
-0.955763
-2.25186
-0.893408
-2.14752
-0.619069
-1.57992
-0.863784
-2.21761
-0.597559
-1.50992
-5.41776
-3.87481
-2.30745
-2.8654
-3.66489
-5.18509
-2.72611
-5.72872
-4.08126
-4.96088
-3.91243
-5.47014
-0.855454
-1.58001
-0.619045
-2.21761
-0.863778
-1.5099
-0.59756
-1.45479
-0.164066
-0.133356
-0.49593
-1.34784
-0.108825
0.282318
-3.57157
-3.16583
-1.19867
-2.0763
-2.13147
-5.43223
-1.3335
-4.16766
-3.47153
-3.64524
-2.46935
-5.96226
-0.528578
-0.133022
-0.163967
-1.34781
-0.495921
0.282842
-0.108768
-0.775145
-0.167153
-0.134165
-0.547615
-0.731044
0.10807
-0.775209
-0.133987
-0.167079
-0.73102
-0.547799
-1.81354
-0.678964
-0.827443
-1.038
-1.36443
-0.923588
-1.81369
-0.827442
-0.679109
-1.36433
-1.03809
-2.38134
-1.13543
-1.44807
-1.32657
-1.73487
-1.91459
-2.3818
-1.44798
-1.13551
-1.7349
-1.32654
-2.47487
-1.35162
-1.78188
-1.27116
-1.64739
-2.42365
-2.47478
-1.78186
-1.35154
-1.64717
-1.27146
-1.60801
-3.99609
-1.1848
-1.61618
-0.744986
-0.980987
-2.43193
-3.99773
-1.60803
-1.61599
-1.18499
-0.980106
-0.744959
-3.53737
0.295416
3.84147
-0.550886
-0.663296
0.0586861
0.30173
-1.42508
3.84154
0.295519
-0.66244
-0.550805
0.301674
0.0586846
1.05144
1.53368
0.207529
0.830046
4.11915
-0.210038
1.08324
4.8189
0.721677
1.85351
-0.160846
0.598637
-0.582512
-0.288243
-1.23118
-0.0818886
-0.534661
-0.29664
0.931321
-1.32587
-0.465921
-0.305916
1.04901
1.53384
0.206523
0.830691
4.1194
-0.20824
1.07624
4.81849
0.721618
1.85348
-0.161026
0.927396
-1.32644
-0.465315
-0.306039
0.600173
-0.582222
-0.288371
-1.23143
-0.0812712
-0.535439
-0.296709
-2.26126
-0.0380588
-0.818054
-1.06377
-0.445819
-2.52819
-1.01362
-2.23607
-1.14555
-4.3362
-2.28531
-0.744163
-1.37043
-1.34642
-0.737152
-1.30907
-2.33247
-2.53685
-1.4702
-0.705185
-2.49901
-2.5095
-1.99826
-1.49864
-3.19164
-1.49263
-3.90065
-2.46694
-2.70363
-3.44238
-4.45792
-2.64169
-2.52807
-1.01342
-2.23611
-1.1455
-4.33675
-2.53614
-1.4708
-0.704869
-2.49817
-2.28386
-0.744138
-1.37075
-1.3465
-0.737651
-1.30913
-2.33231
-2.70249
-3.44261
-4.45704
-2.64077
-2.50811
-1.99841
-1.49883
-3.19283
-1.49256
-3.9006
-2.46757
-5.19064
-2.4246
-4.54128
-3.36233
-4.45366
-4.81369
-2.14862
-3.83243
-2.76303
-3.36183
-2.55855
-5.03049
-5.19562
-4.68103
-4.0758
-3.48553
-5.31545
-4.82835
-2.14371
-3.2586
-2.2828
-4.03207
-2.48852
-3.56951
-5.20552
-3.51088
-4.57401
-3.79459
-4.84353
-2.76637
-2.35476
-3.78908
-2.57645
-4.98424
-3.60011
-5.20386
-3.96231
-5.25881
-3.81843
-5.1954
-4.68057
-4.07605
-3.48539
-5.31415
-4.81307
-2.14875
-3.83254
-2.76326
-3.36162
-2.55874
-5.03016
-5.2096
-3.51176
-4.5732
-3.79596
-4.82741
-2.1438
-3.2598
-2.28322
-4.03232
-2.48867
-3.57052
-5.20722
-3.96272
-5.25737
-3.8198
-4.84315
-2.76658
-2.35511
-3.78915
-2.57671
-4.98377
-3.60119
-4.72566
-4.14171
-5.9436
-4.22922
-5.3389
-4.6642
-2.52832
-3.87379
-2.88788
-3.99216
-2.89883
-5.21278
-4.72919
-5.94765
-4.105
-4.22594
-5.5184
-4.66843
-2.81127
-3.83246
-2.65954
-4.99354
-2.89471
-4.25038
-4.74549
-4.00844
-5.2761
-4.57333
-4.68377
-2.91301
-2.67629
-4.51197
-2.91204
-5.28433
-4.30399
-4.7525
-4.93467
-5.59616
-4.63884
-4.65327
-3.90914
-2.51511
-2.80975
-3.97068
-5.04405
-2.88605
-4.72991
-5.94763
-4.10504
-4.22639
-5.51908
-4.66491
-2.52853
-3.8738
-2.88801
-3.99251
-2.89911
-5.21323
-4.74637
-4.0087
-5.27582
-4.5727
-4.6692
-2.81151
-3.83214
-2.65966
-4.99365
-2.89494
-4.24985
-4.75318
-4.93447
-5.59679
-4.63821
-4.68441
-2.91315
-2.67636
-4.51158
-2.91225
-5.28481
-4.30344
-5.72904
-4.08125
-4.96062
-3.91255
-5.46959
-5.50196
-2.23678
-3.23579
-2.26347
-3.66361
-2.65092
-5.5258
-5.84339
-4.963
-3.55934
-3.89967
-6.05948
-5.52729
-2.89281
-4.50339
-2.41286
-5.25918
-2.75223
-4.39137
-5.87703
-4.94862
-5.54931
-4.89474
-5.61388
-2.25736
-2.30983
-3.39501
-2.67281
-5.54151
-4.34074
-5.99671
-3.70377
-6.15167
-4.85606
-5.41768
-3.87478
-2.30742
-2.86554
-3.66468
-5.1854
-2.72599
-5.84306
-4.96319
-3.55894
-3.89958
-6.05899
-5.50192
-2.23674
-3.23683
-2.26377
-3.66339
-2.65076
-5.52552
-5.87666
-4.94854
-5.54985
-4.89467
-5.52713
-2.89301
-4.50304
-2.41279
-5.25956
-2.75194
-4.39091
-5.99634
-3.70367
-6.15125
-4.85591
-5.61375
-2.25705
-2.30978
-3.39499
-2.67261
-5.54135
-4.34031
-4.1682
-3.47182
-3.64561
-2.46958
-5.96276
-4.01668
-3.46517
-0.57812
-2.23907
0.128706
-3.45232
-2.05671
-3.14533
-0.863383
-5.45961
-1.27322
-1.04201
-4.19731
-3.45451
0.718167
-6.03242
-1.23509
-4.03154
1.0762
1.15362
0.465941
-0.847215
-3.57198
-3.16634
-1.19849
-2.07597
-2.13096
-5.43196
-1.33323
-4.01628
-3.46479
-0.580074
-2.23875
0.12659
-4.19727
-3.4542
0.718219
-6.03197
-1.23421
-3.45362
-2.0565
-3.14527
-0.86333
-5.45958
-1.27305
-1.0419
-4.03166
1.07621
1.15346
0.466541
-0.846185
-0.113676
0.327113
0.515243
0.00830749
-0.66287
1.11181
3.52044
-0.109429
0.51528
0.326946
-0.662646
0.00831248
3.52053
1.11184
1.29156
0.794551
1.75765
0.768735
0.764681
0.709969
1.75759
0.794539
0.768821
0.765033
1.13796
1.29616
1.67436
4.64452
0.983232
1.84214
3.86635
-2.0589
-0.245481
-0.882987
-0.661723
-0.9643
-0.524105
-1.22885
-4.79163
-2.48711
-2.04124
-2.09414
-3.24022
-3.91069
-2.46367
-5.58581
-2.92096
-3.82066
-3.55164
-4.38803
-5.50055
-6.23431
-5.70034
-5.03737
-5.20016
-4.90926
-4.3825
-4.29661
-3.98143
4.74833
-0.286411
2.70193
1.94649
0.78635
0.201367
0.19932
0.366606
-0.0557218
-0.0610003
0.669013
0.201611
0.366561
0.199625
-0.060823
-0.0555839
0.515754
-0.293494
-0.348508
0.070432
0.0703012
-0.48629
-1.4818
-2.40469
-1.57047
-1.24201
-1.11783
-1.79935
-3.31213
-3.60786
-2.44437
-2.43479
-2.18693
-2.7423
-3.90213
-4.4114
-2.92199
-3.16468
-2.79569
-3.33316
-4.66697
-4.4349
-2.44933
-3.24235
-2.81016
-2.87247
-2.98194
0.440753
-0.825593
-0.418624
-1.35113
-1.30049
-0.227441
4.16455
1.53816
4.69322
0.2435
0.564924
0.645928
1.09061
0.516883
4.69329
1.53834
0.564922
0.2435
1.09054
0.645925
1.14258
1.29716
1.6744
4.64472
0.981894
1.84305
3.86659
0.725422
0.421192
0.61667
-0.154064
1.38954
0.0557528
-0.166562
0.730376
2.10185
0.289251
-1.98267
-1.56942
0.73298
2.1038
0.289596
0.724272
0.42112
0.616657
-0.154234
1.38907
0.0556962
-0.16673
-1.98931
-1.55969
-2.29226
-1.06168
-2.21172
-1.94107
-1.32053
-1.41526
-3.76153
-2.79918
-2.04848
-2.69271
-4.81231
-1.97951
-2.51342
-4.253
-2.12819
-2.49466
-2.05902
-0.245408
-0.882848
-0.661317
-0.96474
-0.523902
-1.22871
-2.79914
-2.04845
-2.69278
-4.81187
-1.97951
-4.25095
-2.51372
-2.29223
-1.06166
-2.21277
-1.94112
-1.32013
-1.41534
-3.76168
-2.13037
-2.51572
-5.58655
-2.91998
-3.82007
-3.55063
-4.38971
-5.19958
-5.37479
-4.93848
-4.79029
-2.48742
-2.04137
-2.09431
-3.23997
-3.91046
-2.46377
-5.1994
-5.37457
-4.93779
-5.50031
-6.23417
-5.69832
-5.87908
-5.1081
-5.30905
-5.87907
-5.10809
-5.30881
-5.03731
-5.20008
-4.90908
-4.89809
-4.48855
-4.70837
-6.73432
-6.95734
-4.86129
-6.47839
-4.89804
-4.48856
-4.70833
-6.73559
-6.95758
-4.86231
-6.47795
-4.38253
-4.29686
-3.98141
-3.22683
-0.975101
-0.40773
0.000129616
-1.93355
-1.03228
0.18858
-4.48931
-2.37643
-1.08382
-2.85658
-2.12224
-2.20423
-4.65569
-2.233
-2.92956
-3.06948
0.0652117
-0.583463
1.17074
-0.959816
0.457109
-0.66401
0.800544
7.93724
3.35859
3.34563
2.0585
4.12987
-4.48913
-2.37625
-1.0835
-2.86136
-2.12172
-2.20366
-3.22747
-0.97484
-0.403926
-8.24569e-05
-1.93281
-1.03187
0.18835
-4.65659
-2.23329
-2.92981
0.800415
7.93779
3.35877
3.34559
2.05871
4.12929
-3.07138
0.0652315
-0.583401
1.17046
-0.959763
0.457469
-0.663694
4.74858
-0.285773
2.70109
1.94679
0.785845
4.96399
2.39135
5.88881
1.13339
3.76467
4.96427
2.39125
5.88897
1.13284
3.76417
-0.149209
-0.732734
-0.884423
-0.732013
-0.246773
-0.288312
-0.760818
-1.06536
-2.08281
-1.18068
-0.89773
-1.51483
-0.953236
-1.3579
-0.148815
-0.732472
-0.884462
-0.732394
-0.246769
-0.288717
-0.760913
-1.06523
-2.08191
-1.18073
-0.89795
-1.51534
-0.953542
-1.35546
-2.36954
-4.05739
-3.19284
-1.91097
-1.72758
-1.53094
-2.21761
-4.19059
-3.84345
-3.31879
-2.05809
-2.71873
-2.36827
-2.34833
-2.36862
-4.05755
-3.19235
-1.91089
-1.72804
-1.52856
-2.21737
-4.1908
-3.84378
-3.31848
-2.05827
-2.71913
-2.3679
-2.34857
-3.92431
-5.4596
-4.00347
-2.52576
-2.80402
-2.42115
-2.93486
-5.41765
-3.88004
-4.02563
-2.54182
-2.87034
-2.94329
-2.49176
-3.92479
-5.45979
-4.0039
-2.52594
-2.80435
-2.42136
-2.93493
-5.41778
-3.87989
-4.02596
-2.54198
-2.87032
-2.94332
-2.49184
-3.87776
-4.62537
-3.64183
-2.28208
-2.82473
-2.45963
-2.62057
-4.58248
-3.19958
-3.63186
-2.20737
-2.17143
-2.53194
-1.88242
-3.8776
-4.62527
-3.64159
-2.28208
-2.82467
-2.4597
-2.62058
-4.58235
-3.20018
-3.6316
-2.20736
-2.17124
-2.53181
-1.88216
-3.12911
-3.13169
-2.1112
-1.2008
-2.01741
-1.74815
-1.41946
-2.94389
-0.515038
-1.90083
-1.03446
-0.428593
-1.21337
-0.377334
-3.12979
-3.13163
-2.11136
-1.20094
-2.01739
-1.74829
-1.41942
-2.9438
-0.514092
-1.90103
-1.0346
-0.428561
-1.21334
-0.377544
2.08041
3.92485
1.66163
2.08542
4.66864
1.43019
4.90331
0.825173
1.92967
2.11655
5.06335
1.39934
2.07921
3.92514
1.6623
2.08684
4.66907
1.43023
4.90323
0.825233
1.92926
2.11569
5.06413
1.3994
-0.441007
-1.41488
-1.46346
-0.720444
-1.46559
-0.170391
-0.158133
-0.760447
-0.892325
-0.205998
0.294504
-1.11932
0.278627
1.66084
0.963035
0.63115
0.197185
-1.0721
0.46933
-0.97421
-6.19952
-4.61103
-5.02025
-4.26541
-5.75258
-4.03092
-4.23939
-3.7426
-6.41699
-6.01885
-4.41605
-5.95516
-4.93361
-3.55804
-4.69043
-4.12215
-6.396
-3.65026
-4.61601
-4.82703
-3.76401
-4.72082
-3.63391
-3.77882
-3.60699
-4.86587
-4.7846
-3.74234
-3.59034
-4.765
-3.73944
-4.81658
-5.022
-5.10831
-5.22278
-4.23851
-5.12205
-5.36496
-5.12628
-6.28438
-5.50124
-5.6893
-4.86507
-4.2529
-5.21136
-5.35495
-5.07156
-5.08181
-5.15737
-5.09944
-3.62299
-4.61124
-5.03318
-3.80731
-4.5343
-3.54453
-3.86098
-3.59992
-5.01546
-4.63676
-3.8851
-3.67219
-4.53832
-3.82797
-4.85745
-5.20075
-4.77986
-4.83639
-3.99363
-4.80694
-4.70216
-4.64898
-5.20251
-4.77519
-4.87078
-4.71405
-3.97635
-4.57292
-4.66579
-4.65959
-5.17885
-4.91661
-4.76284
-2.68143
-4.59915
-4.4005
-3.29971
-3.094
-3.94976
-2.81341
-3.84227
-5.18311
-4.46058
-5.92879
-4.16458
-3.11929
-4.54261
-3.81003
-4.12837
-4.13323
-3.34849
-3.83533
-5.53743
-5.24179
-4.91885
-4.46408
0.516035
-0.293338
-0.348321
0.0702975
0.0703514
-0.486365
-1.35311
-0.425008
-0.500251
-1.15109
-0.571992
-0.962709
-1.35381
-0.425133
-0.50047
-1.15109
-0.571898
-0.963167
-1.48106
-2.40507
-1.57005
-1.24203
-1.11742
-1.79917
-3.24778
-2.53475
-1.71216
-2.35967
-1.89408
-2.08198
-3.24865
-2.53386
-1.71265
-2.3597
-1.89379
-2.08223
-3.31116
-3.60679
-2.44378
-2.43476
-2.18677
-2.74234
-3.84832
-3.63824
-2.5187
-3.09376
-2.81201
-2.72585
-3.8485
-3.63929
-2.51954
-3.09365
-2.81195
-2.72633
-3.90168
-4.41174
-2.9217
-3.16487
-2.79499
-3.33322
-4.67672
-4.47086
-2.94164
-3.24839
-3.37933
-2.87734
-4.67588
-4.47067
-2.94127
-3.24826
-3.37931
-2.87709
-4.66757
-4.43474
-2.44946
-3.24247
-2.8103
-2.87238
-3.22804
-4.36257
-2.2789
-1.69951
-2.6326
-1.57912
-3.2287
-4.36312
-2.2799
-1.69925
-2.63367
-1.57836
-2.9813
0.440405
-0.826382
-0.418625
-1.35373
-1.3009
-0.228473
0.981123
1.57676
-0.481545
-0.118041
1.20761
0.144574
0.757336
0.981524
1.57666
-0.480783
-0.11811
1.20775
0.145243
0.757373
1.83754
1.71902
0.46279
1.79704
2.40841
1.2515
1.99475
2.64757
2.90397
2.35677
2.10509
2.56629
1.52006
1.46827
2.40243
0.419212
2.76063
0.909491
4.30139
4.8904
2.54206
3.5879
1.31237
0.743464
1.19631
0.369413
1.84026
0.267201
0.824869
-0.678965
0.215681
1.58859
1.56663
2.89279
1.40567
2.17189
2.80678
1.05451
2.79799
5.13233
3.41824
1.17156
0.153886
0.24765
-0.581921
0.171912
0.674347
2.17639
0.396745
0.227298
1.53897
-0.378157
0.902387
-0.791866
-1.46561
-1.91933
-1.34125
-0.898468
-1.47018
-0.776518
2.47493
2.26282
0.200331
-0.389927
-1.19833
1.16295
-0.579107
-0.0251158
-0.688693
-0.753026
-1.38224
-0.589202
1.83808
1.71894
0.465772
1.25008
2.40859
1.79296
1.99528
2.64617
2.90414
2.35686
2.56651
2.10698
1.52447
1.46871
2.40177
0.41955
2.76032
0.909582
4.30282
4.8915
2.54818
3.58783
1.31279
0.745408
1.19647
0.369293
1.84256
0.266612
0.825088
-0.673872
0.214776
1.58682
1.56687
2.89377
1.40549
2.1732
2.80667
1.05472
2.79752
5.13344
3.41805
1.17176
0.154088
0.247521
-0.580437
0.170345
0.674512
2.17576
0.392566
0.227292
1.543
-0.377699
0.89951
-0.786027
-1.46423
-1.92166
-1.34106
-0.898709
-1.46725
-0.776355
2.47458
2.2624
0.200149
-0.384748
-1.19717
1.16328
-0.578444
-0.025008
-0.686374
-0.75321
-1.38127
-0.588987
-0.440512
-1.41469
-1.46409
-0.72034
-1.46713
-0.172087
-0.158393
-0.760258
-0.892342
-0.205732
0.294526
-1.11696
0.279351
1.66095
0.631271
0.964358
0.197921
-1.07198
0.469395
-0.974633
-2.94722
-1.65483
-3.39904
-1.62783
-2.36772
-2.71662
-1.7861
-1.01146
-1.15454
-1.73544
-1.42326
-2.74116
-2.90305
-3.09242
-4.45475
-2.65663
-1.50583
-1.2042
-2.64744
-3.08564
-3.5494
-3.33623
-2.60536
-4.72311
-1.7427
-2.80583
-2.15706
-2.01333
-1.53119
-1.90614
-2.53056
-2.11543
-2.60036
-1.48685
-0.30896
-1.41034
-2.14424
-2.97011
-2.05461
-3.32183
-2.62985
-2.3533
-3.57333
-2.91979
-3.60576
-4.5743
-4.16969
-3.16135
-4.09429
-3.7816
-3.72514
-4.15962
-3.71932
-3.17343
-3.40152
-3.04198
-4.01095
-3.68024
-2.94729
-1.65411
-3.39995
-1.62707
-2.36911
-2.71698
-1.78605
-1.0116
-1.15448
-1.73546
-1.4243
-2.74133
-2.90257
-4.45418
-3.09103
-2.65635
-1.50638
-1.20402
-2.64453
-3.08606
-3.55032
-3.3368
-4.72484
-2.60635
-1.74268
-2.80595
-2.15763
-2.01394
-1.53179
-1.90665
-2.53872
-2.1166
-2.6098
-1.48628
-0.310962
-1.40966
-2.14493
-2.9701
-2.05499
-3.3255
-2.63384
-2.35386
-3.57209
-2.91988
-3.60619
-4.57918
-4.17037
-3.16161
-4.10265
-3.7817
-3.72359
-4.16054
-3.71984
-3.17319
-3.40505
-3.04196
-4.01504
-3.68026
-6.19974
-4.61189
-5.01995
-4.26585
-5.75296
-4.03103
-4.24009
-3.74151
-6.41625
-6.01961
-4.4159
-5.95705
-4.93233
-3.5555
-4.12072
-4.68871
-6.39395
-3.44453
-4.89912
-4.74301
-3.68708
-3.52619
-4.54077
-3.63453
-4.69224
-5.14516
-4.72986
-5.09504
-4.38528
-4.79318
-6.30085
-6.24653
-5.11196
-3.85703
-5.05443
-4.74569
-4.75569
-5.1503
-5.07555
-4.80731
-3.14169
-4.5678
-3.39788
-4.28566
-3.2495
-4.18507
-3.2578
-3.05007
-4.49921
-2.90986
-3.94134
-3.14202
-2.86215
-4.13734
-5.05059
-4.53754
-4.46179
-4.46706
-4.23098
-3.65523
-4.31888
-4.3553
-5.0018
-4.23132
-4.41392