/*--------------------------------*- C++ -*----------------------------------*\
| =========                 |                                                 |
| \\      /  F ield         | OpenFOAM: The Open Source CFD Toolbox           |
|  \\    /   O peration     | Version:  v1906                                 |
|   \\  /    A nd           | Web:      www.OpenFOAM.com                      |
|    \\/     M anipulation  |                                                 |
\*---------------------------------------------------------------------------*/
FoamFile
{
    version     2.0;
    format      ascii;
    class       volScalarField;
    location    "1000";
    object      ReThetat;
}
// * * * * * * * * * * * * * * * * * * * * * * * * * * * * * * * * * * * * * //

dimensions      [0 0 0 0 0 0 0];


internalField   nonuniform List<scalar> 
270674
(
713.197
784.619
779.483
779.939
779.938
779.49
784.581
712.602
714.924
785.298
774.594
775.862
775.857
774.604
785.231
713.722
717.89
785.628
768.878
770.147
770.146
768.888
785.549
716.01
722.071
786.803
771.945
771.417
771.42
771.955
786.72
719.098
727.187
787.409
622.004
621.912
621.916
621.973
787.304
722.555
733.205
787.113
632.849
632.458
632.288
632.698
786.95
726.331
744.123
787.261
632.193
631.762
631.568
632
787.036
733.588
757.066
787.859
631.726
630.448
629.997
631.12
787.538
741.556
771.994
790.474
633.095
630.984
630.172
632.033
789.919
749.93
764.367
793.522
636.646
633.631
632.53
634.858
792.495
736.751
761.281
796.914
643.335
640.181
638.872
641.36
795.802
730.17
756.014
801.098
655.921
653.279
651.957
654.627
801.776
743.118
753.772
808.366
678.653
677.294
676.279
678.058
808.876
755.684
770.288
812.619
715.576
716.392
716.141
716.832
812.554
769.893
774.884
804.388
771.949
770.896
771.181
772.721
804.405
774.948
731.082
763.556
769.074
767.82
768.299
770.389
763.555
731.065
699.516
711.169
724.509
722.071
722.419
725.831
711.17
699.516
631.245
629.79
659.916
655.783
655.948
661.178
629.79
631.244
500.344
500.434
555.634
552.327
552.439
557.045
500.434
500.344
331.146
331.116
329.356
384.47
384.572
329.356
331.116
331.146
783.798
987.195
975.863
977.751
977.753
975.87
987.235
783.804
784.594
978.052
967.742
980.692
977.101
967.751
978.107
784.61
785.296
970.064
971.938
967.434
968.134
969.965
970.125
785.331
786.493
959.061
960.318
961.061
960.899
961.089
959.102
786.573
786.937
956.443
942.791
942.57
943.679
940.378
948.992
787.073
786.251
950.001
938.231
940.38
940.821
938.769
945.085
786.484
786.861
941.149
928.161
931.26
931.964
929.355
936.824
787.136
787.684
927.987
914.518
916.316
917.713
915.147
924.136
788.077
789.408
911.448
897.86
895.837
896.397
896.505
905.267
789.952
790.883
892.533
879.567
870.125
868.446
875.446
886.196
791.747
794.986
877.718
862.817
853.899
849.51
855.99
870.905
796.081
800.822
862.159
849.113
834.854
829.053
841.051
855.949
801.113
808.108
846.932
839.522
828.217
823.406
833.42
843.417
808.153
811.56
828.369
828.703
828.524
827.625
828.796
829.172
811.567
804.912
801.385
804.289
807.474
808.61
805.863
802.738
804.915
763.768
766.996
770.267
774.294
775.774
772.331
768.622
763.769
711.351
720.518
722.855
725.742
726.776
724.385
721.763
711.351
629.916
654.901
655.716
656.745
657.215
656.322
655.392
629.916
500.723
551.603
551.166
551.134
551.351
551.047
551.432
500.723
331.149
383.706
382.901
383.057
383.096
382.891
383.193
331.149
778.708
976.644
975.47
975.993
974.417
975.476
976.664
778.607
774.614
967.177
978.957
969.047
970.603
970.475
967.199
774.478
769.936
961.797
964.756
963.21
964.09
963.986
961.833
769.82
771.841
963.117
956.62
958.177
959.031
957.263
955.763
772.003
620.289
945.653
948.164
949.912
948.958
949.792
947.631
999.623
632.708
938.505
940.573
950.603
949.689
940.906
938.85
949.414
632.668
928.04
930.986
935.114
937.863
932.731
929.177
937.716
632.577
914.643
918.366
925.039
929.169
921.603
915.335
924.677
633.474
898.711
896.158
908.94
912.719
898.125
896.901
910.95
637.762
881.267
868.924
871.504
868.611
862.712
875.762
893.988
645.165
864.911
840.655
822.404
813.204
831.036
855.118
878.199
658.676
851.769
824.802
791.103
767.178
802.704
840.062
863.457
682.051
841.674
821.273
788.166
766.47
798.737
832.45
849.928
718.936
828.657
827.199
811.828
801.859
817.699
827.979
833.797
774.314
803.834
809.312
816.714
820.776
816.243
805.64
809.123
772.501
769.604
776.689
789.893
795.569
788.201
772.239
776.79
729.132
722.309
727.119
740.897
746.275
739.845
724.305
733.083
663.676
655.515
656.689
668.474
668.979
668.871
656.313
668.655
497.147
551.595
550.482
568.489
567.466
550.041
551.134
497.147
331.252
383.266
382.197
382.842
381.061
382.567
382.374
331.252
780.07
977.869
977.412
975.15
950.151
976.633
977.878
780.06
776.074
969.093
968.22
969.633
942.38
972.63
969.091
776.063
770.443
970.495
963.569
961.868
935.706
968.138
957.232
770.436
771.126
959.554
957.971
961.581
880.453
954.892
954.873
771.133
620.027
940.59
946.49
956.004
933.32
948.692
950.269
996.648
633.1
939.011
949.996
936.421
913.71
944.507
936.159
948.291
632.915
929.164
934.092
937.724
930.587
938.474
930.067
936.905
633.009
914.649
923.018
942.093
956.973
935.185
917.572
923.558
634.599
896.369
901.097
922.903
937.954
916.464
895.332
908.28
639.483
876.367
866.296
859.606
912.468
860.857
868.072
891.206
649.814
858.366
830.258
778.592
759.722
785.223
842.716
874.165
668.506
845.589
810.618
728.203
632.237
742.123
827.241
859.762
701.199
838.419
809.895
730.594
619.129
744.982
824.553
847.737
753.309
829.423
824.409
791.224
685.037
797.753
828.688
833.878
815.401
805.663
815.453
825.996
833.202
826.079
809.025
809.809
774.86
771.636
786.4
812.488
813.324
810.064
776.235
777.539
729.499
723.662
738.093
761.307
773.079
753.418
726.792
733.399
663.584
655.981
668.475
661.99
544.65
667.789
656.775
668.454
497.117
551.521
549.589
551.268
511.03
561.869
550.832
497.117
331.227
383.055
381.819
379.211
397.91
381.578
382.12
331.227
780.106
977.502
977.581
963.554
611.398
977.567
977.5
780.185
776.22
968.572
972.925
969.512
578.409
957.558
968.563
776.325
771.339
966.372
965.849
968.96
544.469
970.037
952.739
771.412
771.612
959.052
958.789
967.922
222.134
955.058
955.005
771.378
619.565
941.312
947.39
965.653
209.46
952.378
949.473
994.387
633.121
937.497
946.65
911.584
106.242
935.229
936.023
947.869
633.155
927.706
933.607
923.149
934.554
929.361
936.269
633.335
913.425
922.741
954.472
938.913
915.887
922.997
635.437
895.546
896.745
919.865
911.758
893.638
907.482
640.267
876.569
860.531
833.387
838.111
867.499
890.938
650.524
859.862
829.318
756.054
780.202
845.097
874.911
669.34
848.133
814.242
730.886
753.394
832.386
861.094
701.891
841.032
815.943
759.299
762.699
830.113
849.019
753.506
829.72
829.308
797.05
805.586
830.181
833.782
815.126
805.518
816.602
830.416
828.619
808.75
809.497
774.458
771.177
786.804
817.883
734.939
807.404
775.196
777.069
728.97
723.273
737.36
756.884
748.376
749.041
725.778
732.899
663.118
655.814
655.974
660.369
548.408
666.682
656.336
667.968
496.995
551.419
549.702
553.966
524.535
545.086
550.673
496.995
331.204
383.078
382.004
381.42
379.218
381.831
382.242
331.204
781.224
976.587
975.214
977.659
977.641
975.203
976.59
781.212
778.646
967.717
967.627
968.23
962.938
967.616
967.715
778.629
775.113
961.789
963.41
965.004
970.158
957.281
961.781
775.102
768.478
960.241
956.44
958.038
957.014
956.082
952.496
768.492
766.333
950.653
948.466
951.274
949.957
948.533
947.998
766.319
620.723
930.955
939.497
938.53
929.247
938.345
939.581
988.152
633.99
925.987
928.648
932.781
928.738
930.891
928.39
938.574
634.627
913.711
913.925
926.116
933.392
922.765
914.511
923.554
637.246
898.662
891.26
892.681
893.306
895.587
896.389
909.107
642.567
883.085
867.622
849.436
838.509
856.157
877.248
894.601
653.036
868.875
848.168
818.001
800.991
827.086
860.731
880.443
671.95
857.328
837.321
805.812
789.81
813.958
849.098
866.7
704.712
847.471
834.985
812.472
801.215
818.163
842.061
853.081
756.413
831.229
830.862
832.955
829.833
833.754
831.712
835.557
819.754
806.101
808.484
820.871
825.178
818.483
808.053
810.894
779.619
771.932
774.017
790.25
797.362
787.651
774.553
777.895
709.962
725.818
724.647
738.99
741.73
727.071
727.665
709.962
630.111
660.799
655.825
655.48
655.073
655.975
661.769
630.111
500.553
556.393
550.732
550.266
549.822
550.61
556.995
500.553
331.053
329.02
382.49
383.335
383.298
382.92
329.02
331.053
785.48
984.579
976.495
977.511
977.588
976.319
983.974
785.765
786.317
976.188
967.557
969.729
969.815
967.356
975.534
786.745
786.763
969.151
962.059
962.213
962.305
961.855
968.538
787.238
786.517
961.338
954.995
950.504
949.327
954.009
960.975
786.854
784.946
950.414
948.169
948.243
947.969
947.884
950.338
785.599
788.842
941.21
939.285
939.766
939.601
939.408
931.482
788.748
789.13
934.583
927.705
928.761
928.432
928.026
927.446
789.14
789.822
923.604
914.309
914.842
914.144
913.796
916.808
789.804
790.978
910.544
898.77
895.391
894.384
896.734
903.408
791.036
793.534
896.131
882.833
875.353
873.923
878.808
889.14
793.608
797.402
884
868.433
859.701
856.996
863.367
875.799
797.506
802.913
871.754
856.676
848.907
846.387
852.107
863.898
803.024
809.14
855.706
846.649
842.718
841.269
844.187
852.572
809.161
811.283
835.494
831.128
832.08
832.333
831.458
835.648
811.144
803.761
810.573
806.167
808.171
808.886
807.188
811.222
803.787
762.579
777.347
772.395
774.759
775.709
773.37
778.278
762.574
710.553
709.757
726.145
727.512
727.97
726.522
709.757
710.554
629.523
629.648
661.088
661.268
661.364
660.785
629.648
629.523
500.428
499.817
556.765
556.279
556.232
556.044
499.817
500.428
331.128
330.811
329.033
329.005
329.005
329.033
330.811
331.128
719.935
786.15
781.097
781.522
781.416
780.889
786.269
719.961
725.94
787.517
778.688
779.122
778.977
778.416
787.642
725.799
732.327
788.297
775.479
776.036
775.893
775.271
788.275
731.613
740.031
788.673
768.89
769.605
769.605
769.262
788.099
737.475
745.379
788.815
765.897
767.475
768.111
768.462
789.203
745.872
730.988
794.028
987.886
985.15
985.131
986.013
793.699
730.907
720.381
795.893
939.365
937.986
938.061
937.988
795.715
720.45
728.512
796.991
925.025
923.147
923.095
923.18
796.997
728.522
735.812
798.029
910.886
908.798
908.617
909.362
797.927
735.807
746.603
800.725
897.237
894.244
893.758
895.293
800.706
746.62
763.194
803.001
883.817
880.226
879.519
881.481
802.955
763.22
785.646
806.45
870.776
866.851
866.21
867.98
806.393
785.681
814.237
810.228
856.163
853.331
853.025
853.783
810.189
814.266
835.946
811.097
835.518
835.202
835.281
834.959
811.128
835.94
798.754
803.747
810.005
810.411
810.605
809.938
803.742
798.755
762.934
762.583
777.034
777.354
777.645
776.745
762.584
762.934
710.083
710.475
709.644
710.1
710.1
709.644
710.475
710.084
629.43
629.404
629.783
630.098
630.098
629.783
629.404
629.43
500.464
500.146
500.29
500.546
500.546
500.29
500.146
500.464
331.084
330.966
331.039
331.116
331.116
331.039
330.966
331.084
759.722
733.064
637.918
753.825
722.917
778.57
637.882
733.186
753.801
722.936
632.24
725.916
613.655
721.255
746.011
728.21
613.613
725.896
721.211
746
619.195
782.064
672.213
753.787
789.507
730.561
672.109
782.049
753.78
789.537
685.171
826.75
840.456
792.917
828.718
791.194
840.365
826.769
792.953
828.721
833.289
815.487
814.555
828.81
823.291
650.869
826.012
814.527
815.492
828.81
650.695
823.292
813.346
770.815
778.005
819.358
667.091
769.972
741.585
812.49
777.995
770.805
666.962
819.358
741.585
769.975
773.086
687.857
595.172
758.99
738.119
682.399
515.794
761.311
595.131
687.852
738.119
758.992
515.794
682.4
813.21
797.399
775.465
781.887
779.827
739.238
663.399
822.482
775.462
797.427
779.804
781.772
663.39
739.326
767.183
785.902
758.019
734.466
652.958
731.464
626.352
791.141
758.015
785.848
652.945
734.487
626.341
731.488
766.498
804.125
789.148
734.969
631.127
782.782
690.457
788.081
789.166
804.119
631.131
735.014
690.394
782.773
801.849
820.568
823.598
791.242
716.093
827.008
847.398
811.827
823.587
820.579
716.036
791.241
847.367
827.035
820.787
798.475
803.909
826.215
839.518
814.025
817.865
816.725
803.886
798.486
839.489
826.228
817.848
814.024
795.588
755.447
761.703
810.687
816.914
768.425
780.308
789.902
761.678
755.443
816.894
810.688
780.304
768.426
912.492
790.928
775.791
837.576
762.001
859.597
775.849
790.967
837.334
761.99
785.197
813.731
750.208
826.498
772.14
813.184
736.267
830.227
750.193
813.743
772.096
826.508
736.248
813.19
742.084
808.542
740.967
810.568
733.435
810.284
758.386
599.252
650.845
610.421
645.973
601.079
810.645
740.922
808.543
733.39
810.572
758.352
810.295
744.914
819.902
789.58
812.278
761.387
823.544
797.378
814.278
666.369
670.656
693.052
663.309
809.885
789.537
819.903
761.359
812.293
797.386
823.548
797.752
820.291
826.92
827.818
802.224
821.716
827.235
731.96
777.607
818.241
797.318
835.596
829.282
814.486
717.27
767.117
849.808
838.679
801.032
824.38
826.917
820.292
802.24
827.819
827.232
821.715
826.078
795.383
813.589
816.912
825.64
796.627
819.183
623.909
831.669
822.683
824.324
817.596
822.115
823.317
588.836
832.635
809.133
813.423
810.873
815.455
813.573
795.387
825.635
816.911
819.184
796.628
810.076
752.123
766.992
787.416
815.373
752.316
765.876
805.547
822.067
799.255
818.873
811.034
810.508
805.029
796.665
821.647
803.602
811.535
795.977
786.404
766.987
752.124
815.375
787.418
765.878
752.321
731.268
802.299
782.133
789.488
769.097
755.998
731.287
782.122
802.242
769.082
789.488
753.994
788.606
769.294
794.567
780.741
730.854
753.975
769.287
788.617
780.745
794.559
793.142
799.146
783.631
819.479
811.39
759.272
793.203
783.631
799.155
811.311
819.492
829.923
828.164
818.182
828.251
832.795
797.146
829.933
818.042
828.189
832.808
828.266
822.102
705.914
824.814
831.492
805.393
816.404
830.414
705.791
822.106
831.487
824.826
816.39
805.398
734.981
767.032
752.798
795.548
805.654
756.45
761.709
817.886
752.798
767.04
805.62
795.549
761.709
756.451
644.547
683.458
661.353
701.643
107.284
603.698
636.323
146.618
679.138
686.76
659.167
653.405
710.4
731.498
669.082
722.07
622.44
670.532
630.767
664.315
601.096
658.025
644.651
683.523
661.497
701.065
107.345
603.778
636.587
146.733
679.106
687.07
659.169
630.572
664.295
601.013
658.007
653.11
710.353
731.528
669.079
722.121
622.569
670.553
598.955
650.714
610.443
645.929
600.996
596.689
606.286
662.101
677.219
658.399
620.345
707.38
668.269
724.691
620.223
706.968
678.393
604.353
663.964
598.71
670.59
622.427
726.386
727.524
742.37
709.324
682.667
681.872
604.521
738.651
660.154
673.251
596.98
606.264
662.145
677.18
657.789
604.678
663.968
598.655
670.723
620.326
707.299
668.294
724.718
620.328
706.996
678.063
604.79
738.409
659.585
673.283
622.267
726.425
727.521
742.479
709.309
682.616
681.861
815.172
666.294
670.587
693.12
664.134
794.47
756.618
763.579
789.279
713.784
764.077
810.183
826.223
670.573
752.325
704.781
775.099
804.281
734.539
749.935
772.518
693.858
760.609
787.032
825.338
752.431
665.731
795.813
815.823
790.824
777.755
750.619
769.079
817.293
790.439
828.383
738.777
785.095
802.891
826.564
670.592
752.026
704.75
772.983
795.468
756.626
763.399
789.222
713.749
764.058
808.598
826.208
752.111
665.002
795.647
804.278
734.572
750.363
772.498
693.765
760.55
787.005
829.307
738.978
782.935
802.713
816.161
790.814
777.77
750.89
769.081
815.824
790.535
716.727
767.441
849.901
838.585
802.795
701.408
825.15
833.243
824.592
834.694
818.954
822.187
673.537
837.775
834.951
836.516
810.837
722.288
796.87
740.135
809.225
832.182
809.643
731.242
711.999
721.915
807.838
711.348
695.393
823.777
817.883
802.141
813.935
819.878
734.613
669.283
781.907
810.104
712.209
732.815
777.415
818.234
797.273
835.657
828.04
814.516
674.005
837.682
834.972
836.599
811.014
701.917
825.147
833.273
824.605
834.75
818.987
822.391
712.478
722.013
806.111
711.532
722.937
796.859
740.238
809.265
831.05
809.663
731.334
669.691
781.673
810.263
712.45
695.784
823.777
817.925
801.955
813.959
820.016
734.711
589.089
832.613
809.122
813.434
810.605
625.858
821.354
822.545
821.469
817.155
823.477
812.983
590.186
804.953
821.889
812.923
798.325
621.728
823.935
804.458
829.462
820.058
824.169
824.229
587.38
790.818
809.934
814.058
624.233
822.862
829.225
836.335
824.677
813.96
829.444
589.071
834.866
802.329
822.679
623.668
831.696
822.683
824.339
817.6
822.453
823.333
589.985
804.981
821.883
812.91
798.283
625.664
821.351
822.527
821.477
817.158
823.49
812.98
587.189
790.723
810.174
814.039
621.579
823.941
804.296
829.465
820.325
824.184
824.22
588.913
834.861
802.362
822.642
624.112
822.859
829.222
836.333
824.693
813.987
829.421
796.702
821.657
803.644
811.533
795.959
795.409
802.172
779.584
807.988
761.898
805.825
820.049
834.906
802.43
812.677
805.434
809.26
796.856
832.207
757.176
799.638
806.796
795.434
757.611
769.568
761.457
802.327
805.535
822.125
799.254
818.896
811.04
810.534
805.03
795.369
802.134
779.596
807.987
761.895
796.871
832.201
757.177
799.707
806.789
805.837
820.047
834.905
802.431
812.712
805.432
809.257
795.45
757.613
769.569
761.46
802.321
746.301
688.41
690.379
759.466
775.325
689.989
655.882
740.906
690.349
688.419
775.32
759.467
655.868
689.976
937.977
887.827
918.528
923.167
850.254
922.903
918.515
887.762
923.21
850.432
650.303
762.714
703.481
188.916
716.363
717.908
110.319
617.355
679.337
718.404
707.978
657.832
623.771
704.714
784.455
676.263
749.04
728.971
711.138
688.046
755.064
770.371
629.612
643.808
648.06
609.574
726.533
856.699
852.14
838.07
829.628
824.358
818.332
812.139
814.057
715.99
774.697
729.449
737.61
756.989
763.084
842.165
824.971
809.991
786.213
833.255
763.043
824.854
842.275
786.261
809.859
687.51
669.158
727.237
726.902
738.197
716.318
673.969
679.082
729.907
716.545
724.396
721.22
754.135
782.719
769.01
753.606
758.822
755.759
721.418
723.322
803.132
757.606
776.343
797.365
815.496
830.036
839.72
839.924
839.143
847.698
833.721
776.277
807.833
801.68
825.305
822.259
803.746
748.376
684.251
561.595
740.634
743.965
687.155
685.549
756.893
561.599
684.248
743.962
740.635
685.545
687.155
649.94
762.415
703.417
188.658
716.63
717.353
110.237
653.039
754.424
691.344
735.265
754.871
729.063
671.578
663.733
236.088
612.578
715.369
686.782
661.782
235.936
610.245
654.025
754.41
691.33
735.31
754.789
729.154
671.596
720.465
682.795
620.014
715.022
668.793
721.387
652.348
706.341
673.021
585.088
602.979
625.274
556.515
614.25
557.903
610.885
733.432
662.455
617.332
679.636
718.347
707.929
657.902
623.703
704.685
585.367
602.971
625.096
556.683
614.252
608.473
558.003
619.991
715.018
668.776
721.388
652.43
706.341
673.203
738.041
670.109
766.283
629.765
643.674
648.031
613.422
661.998
700.501
672.155
785.396
676.342
749.068
728.974
711.126
688.181
755.046
661.983
700.03
672.068
727.187
856.772
851.928
870.228
846.428
839.711
870.131
846.426
839.738
838.067
829.72
824.388
804.458
818.358
808.731
701.088
560.142
795.058
778.367
804.386
818.348
808.692
700.335
561.294
795.078
778.381
818.345
812.187
814.061
802.566
793.371
781.439
774.935
807.824
798.6
770.91
711.331
791.094
779.209
617.911
792.944
724.788
796.247
726.391
795.698
802.379
774.382
795.398
774.166
798.765
769.65
804.702
686.443
558.469
748.726
753.337
765.678
712.295
711.356
791.075
779.202
618.351
792.932
724.789
802.557
793.36
781.417
774.94
807.826
798.597
770.912
796.266
726.309
795.723
686.468
558.472
748.728
753.339
765.682
712.282
802.393
774.381
795.4
774.166
798.764
769.648
804.7
715.988
774.681
729.457
737.608
756.998
714.441
759.285
693.08
756.438
719.536
714.438
759.284
693.075
756.436
719.544
680.778
629.724
662.926
718.556
715.262
730.652
701.76
619.748
663.523
659.372
717.496
700.554
699.587
718.868
680.702
629.719
662.914
718.548
715.265
730.579
701.676
619.715
663.558
659.425
717.622
700.61
699.473
719.287
670.804
678.954
704.131
735.793
704.46
721.983
717.834
681.153
756.963
705.035
737.693
757.444
726.489
768.836
670.73
678.915
704.004
735.417
704.574
722.027
717.877
681.175
756.77
704.907
737.477
757.438
726.426
768.842
771.231
855.286
837.303
817.001
771.022
780.935
820.027
847.599
834.87
837.081
826.177
832.485
831.188
828.899
771.057
855.287
837.384
817.031
771.071
780.936
820.082
847.594
834.883
837.157
826.205
832.493
831.203
828.913
833.26
817.831
820.375
823.405
831.375
828.048
826.273
814.196
821.703
819.467
821.455
816.931
824.262
813.977
833.269
817.806
820.394
823.418
831.377
828.061
826.298
814.168
821.663
819.493
821.47
816.935
824.281
813.97
821.292
807.955
811.243
796.676
813.608
810.728
800.271
805.806
780.911
807.951
790.174
773.1
794.157
769.823
821.334
807.95
811.244
796.681
813.613
810.725
800.277
805.801
780.889
807.954
790.179
773.109
794.166
769.824
821.205
345.674
816.003
857.319
234.833
745.527
151.842
685.034
711.324
808.825
247.922
734.564
821.722
345.453
815.501
856.843
234.753
745.479
151.955
684.998
711.69
809.224
247.843
734.42
571.292
610.941
595.711
613.647
568.814
570.279
616.028
614.798
611.765
630.628
593.174
577.532
586.281
615.991
582.64
618.637
581.438
523.13
609.78
586.328
821.523
729.364
749.068
692.917
812.858
653.29
676.431
654.547
993.355
622.628
581.547
780.445
729.587
639.959
672.392
678.154
610.558
821.182
824.893
846.473
801.659
855.825
819.245
820.836
818.448
850.259
816.05
810.364
795.985
857.462
823.153
814.411
832.241
867.975
742.854
827.372
791.443
851.038
864.75
866.658
844.592
862.18
825.59
839.663
851.464
858.958
866.245
835.8
780.087
867.112
816.432
716.013
684.268
807.526
763.519
814.276
808.262
818.125
706.705
827.291
817.295
822.937
790.309
810.714
679.559
653.164
785.747
839.004
823.311
827.182
826.005
807.87
829.557
803.423
820.801
709.391
820.151
807.024
821.913
800.902
678.408
830.497
795.072
820.654
813.245
820.018
826.899
824.023
815.754
822.701
804.061
800.268
801.965
705.178
816.705
818.823
816.32
815.408
812.549
809.499
805.75
812.032
540.029
800.117
813.864
804.56
687.566
669.15
727.269
726.929
738.215
716.31
674.201
668.443
725.237
716.839
715.781
723.956
674.169
668.425
725.203
716.823
715.771
723.942
673.968
678.683
729.896
716.557
724.398
721.081
745.225
682.274
733.786
750.591
721.913
754.673
744.962
682.351
733.849
750.587
721.947
754.51
754.313
782.851
769.1
753.613
758.883
755.728
733.438
786.485
770.308
754.834
755.489
770.983
733.564
786.355
770.317
754.923
755.521
770.987
721.277
723.107
803.081
757.501
776.153
797.45
810.613
726.869
818.275
839.293
807.031
836.67
810.625
727.32
818.31
839.306
806.973
836.663
815.564
830.108
839.766
839.914
839.148
847.744
836.22
833.954
838.535
831.506
844.877
827.916
836.225
833.933
838.548
831.535
844.856
827.913
833.714
776.275
807.828
801.682
825.291
822.263
803.764
774.566
771.692
803.501
793.812
767.51
795.366
766.692
774.568
771.702
803.506
793.815
767.505
795.352
766.698
602.61
616.406
139.86
179.617
644.643
586.059
612.385
294.105
672.505
642.769
191.631
652.378
291.482
658.344
349.345
625.743
485.36
637.757
391.496
110.356
185.699
289.307
349.185
635.339
669.1
669.895
470.701
603.576
643.656
643.655
609.809
282.049
666.227
610.464
670.961
403.692
502.914
644.551
203.795
109.341
277.893
367.552
630.113
666.402
603.513
600.705
637.395
329.672
614.46
622.019
223.662
622.281
131.042
654.729
672.933
649.281
632.871
662.691
637.538
631.947
195.523
146.266
610.461
151.074
619.28
206.88
622.562
629.31
606.59
661.284
631.019
630.56
602.521
616.975
139.802
586.429
643.166
179.797
612.322
294.189
672.384
642.694
651.027
191.915
291.46
658.094
350.133
625.681
487.13
637.739
392.466
110.431
185.683
289.978
349.601
634.395
669.142
669.876
469.825
602.67
643.59
643.579
607.9
282.316
666.089
611.73
671.033
403.707
504.457
644.532
204.047
109.421
278.563
367.636
630.074
666.4
603.83
599.959
637.351
330.404
614.867
622.03
224.049
622.326
131.149
653.047
671.933
650.024
632.758
662.596
635.813
631.905
195.718
146.431
610.691
151.053
619.053
207.034
622.482
629.292
606.498
661.198
630.218
630.541
571.239
610.869
595.647
613.691
568.501
570.698
616.014
614.769
611.633
630.598
593.184
577.392
586.188
615.242
616.813
582.027
581.43
522.848
610.224
586.945
585.829
612.543
615.446
568.271
616.645
583.184
602.821
608.18
616.332
611.901
565.991
582.25
602.323
415.169
616.512
597.523
505.533
584.341
429.147
591.99
616.763
630.582
618.664
649.951
594.425
647.355
650.752
649.541
631.774
663.46
619.037
625.553
658.247
595.281
151.748
616.344
619.819
635.6
664.082
649.292
618.998
625.913
617.687
648.186
659.978
854.647
747.241
703.894
630.562
672.573
619.199
734.374
666.354
643.403
637.306
692.81
633.191
669.187
586.249
612.429
615.386
568.845
616.571
583.743
602.81
608.205
615.086
611.916
565.576
582.374
603.191
613.883
414.75
599.146
505.434
582.992
428.198
592.513
616.701
630.508
651.493
618.676
594.332
647.788
650.948
649.611
631.653
663.606
622.739
625.826
666.865
595.1
151.7
616.002
619.921
635.875
664.285
649.742
623.218
626.214
617.751
648.603
659.744
849.616
746.393
703.668
627.581
672.128
619.144
733.647
665.995
643.633
639.636
692.544
628.627
668.876
813.467
728.84
746.944
692.922
798.169
653.2
676.352
654.423
976.359
615.069
584.281
771.058
728.067
640.036
678.064
672.832
602.702
764.996
766.217
781.698
802.606
787.091
737.07
780.973
737.146
776.625
729.532
666.547
677.48
671.733
965.63
695.146
713.827
724.764
752.127
683.284
710.86
756.714
759.642
721.712
752.989
719.963
762.316
823.527
739.274
779.222
771.523
746.473
712.464
708.52
735.174
732.315
723.685
768.676
748.571
829.416
778.121
847.368
758.173
773.155
724.657
783.345
738.759
742.676
775.069
835.069
776.515
773.085
697.634
786.112
786.456
769.1
787.643
830.146
783.958
776.635
829.37
787.588
780.171
802.662
801.828
788.016
822.448
787.926
787.606
837.586
830.163
697.134
783.195
785.328
763.242
828.949
772.599
797.593
826.705
840.113
803.904
796.735
765.222
832.493
737.569
777.216
729.79
666.508
677.48
671.676
985.647
701.026
713.333
724.644
750.817
683.153
710.795
758.497
758.069
721.951
764.83
767.212
781.764
802.456
736.792
780.851
786.949
748.466
829.302
778.409
844.257
757.576
773.533
724.28
783.374
739.255
742.128
775.405
834.894
776.734
767.291
695.879
786.092
752.943
720.462
762.296
823.613
739.339
779.392
771.512
746.422
712.801
708.529
735.272
723.607
732.416
768.852
788.643
837.534
830.001
702.309
783.471
785.794
766.993
828.909
774.528
798.069
826.459
839.994
799.638
797.216
770.252
832.517
786.486
769.136
788.274
830.223
783.924
776.691
829.318
787.603
781.145
802.61
801.922
787.991
822.287
787.953
813.666
832.064
867.932
743.489
827.374
793.072
850.905
864.612
866.733
844.454
861.945
825.234
839.59
851.318
858.754
865.985
835.651
781.607
867.109
818.815
801.287
795.138
678.321
817.984
775.163
792.522
822.249
692.638
829.338
816.653
823.704
798.63
797.798
790.505
641.416
781.123
864.354
823.908
842.14
844.976
836.987
833.058
851.757
835.106
792.714
842.829
836.021
845.204
822.244
656.153
831.346
807.323
778.04
839.995
789.795
711.856
808.688
729.667
773.743
780.578
844.218
807.549
793.336
812.126
787.098
738.625
826.435
690.59
688.962
689.381
775.333
690.67
534.734
683.242
830.435
794.186
692.469
693.436
693.148
669.9
564.523
682.895
780.945
784.073
671.25
698.548
783.125
772.907
693.595
787.862
684.506
810.489
790.136
788.61
709.041
811.364
636.391
677.86
666.32
736.635
795.538
747.932
668.601
686.275
650.194
806.468
678.028
683.859
621.053
728.24
630.58
675.767
821.445
825.143
846.68
801.738
855.876
818.719
820.934
818.675
850.423
815.754
810.323
857.306
795.682
823.18
791.604
640.647
781.276
864.258
824.078
842.176
844.959
837.018
833.104
851.785
835.06
793.15
842.938
836.062
845.231
822.224
655.222
831.516
807.374
818.619
801.584
795.182
677.499
817.591
775.223
792.44
822.083
691.586
829.413
816.738
798.68
797.712
823.83
826.616
690.633
690
692.67
775.75
690.664
534.29
683.856
830.585
794.974
693.508
693.551
693.135
672.925
563.963
683.56
778.11
840.239
789.813
711.832
808.724
729.947
773.773
780.656
844.416
807.503
793.577
787.145
812.133
738.945
635.781
677.672
665.604
735.838
795.392
747.709
667.21
685.736
649.446
806.411
677.384
683.775
625.473
728.165
630.644
675.167
780.914
784.073
670.653
698.414
783.068
772.92
693.376
787.831
683.738
810.567
790.103
788.561
708.864
811.382
679.246
653.322
786.026
838.999
823.295
827.137
826.056
808.05
829.648
803.266
820.816
709.102
820.14
806.953
821.923
801.125
678.144
830.315
795.285
820.659
717.969
809.94
746.866
814.998
781.55
821.087
822.468
781.113
820.514
827.576
824.179
805.187
824.256
678.696
707.105
765.24
800.596
797.635
801.982
817.128
818.987
817.268
812.177
805.767
706.176
802.845
816.789
807.263
773.76
752.477
814.904
790.481
813.26
678.097
808.185
696.505
806.871
702.726
817.797
813.15
699.774
813.95
800.105
809.336
814.228
726.978
646.361
651.016
675.27
722.355
797.363
783.757
575.47
687.114
635.944
555.712
669.361
805.542
687.838
652.843
785.119
730.754
574.927
677.583
830.014
810.994
751.53
717.66
822.54
820.725
812.518
831.894
785.721
828.641
827.486
825.533
822.592
832.427
713.929
657.83
801.136
646.003
778.224
808.33
824.33
839.621
803.988
823.938
759.044
819.893
811.553
673.047
734.083
838.348
799.128
801.81
816.464
716.13
684.364
807.519
763.498
814.29
808.31
818.171
707.249
827.382
817.365
790.317
823.019
810.777
679.059
707.545
765.358
800.519
797.735
801.94
817.107
819.01
817.169
812.172
805.644
706.413
802.824
816.785
807.248
773.647
752.758
814.778
790.47
820.695
718.073
809.933
747.052
815.04
781.409
821.116
822.478
781.186
820.456
827.586
805.08
824.269
824.17
646.43
651.182
675.598
721.444
797.292
783.763
576.36
687.447
634.865
556.922
669.839
805.49
688.165
652.85
785.116
729.244
575.914
677.91
813.287
678.371
808.197
696.602
806.957
702.958
817.799
813.186
700.356
814.046
800.182
814.275
809.419
727.275
714.237
657.991
801.068
645.233
778.219
808.374
824.333
839.597
803.99
823.905
759.246
819.903
811.525
673
733.24
838.307
799.151
801.578
830.009
811.02
751.71
717.639
822.564
820.724
812.482
831.892
785.836
828.657
827.483
825.567
822.579
832.418
804.049
800.336
802.167
705.115
816.707
818.824
816.349
815.404
812.508
809.553
805.754
812.034
539.983
800.191
813.976
804.723
687.665
802.504
782.086
791.916
703.614
794.854
804.535
796.842
541.362
671.688
668.626
667.971