/*--------------------------------*- C++ -*----------------------------------*\
| =========                 |                                                 |
| \\      /  F ield         | OpenFOAM: The Open Source CFD Toolbox           |
|  \\    /   O peration     | Version:  v1906                                 |
|   \\  /    A nd           | Web:      www.OpenFOAM.com                      |
|    \\/     M anipulation  |                                                 |
\*---------------------------------------------------------------------------*/
FoamFile
{
    version     2.0;
    format      ascii;
    class       volScalarField;
    location    "1000";
    object      yPlus;
}
// * * * * * * * * * * * * * * * * * * * * * * * * * * * * * * * * * * * * * //

dimensions      [0 0 0 0 0 0 0];


internalField   uniform 0;

boundaryField
{
    movingWall
    {
        type            calculated;
        value           uniform 0;
    }
    frontAndBack
    {
        type            calculated;
        value           uniform 0;
    }
    trup
    {
        type            calculated;
        value           nonuniform List<scalar> 
18760
(
350.893
350.893
339.946
238.405
113.047
238.357
262.146
279.936
262.286
93.3458
280.154
90.8533
309.718
223.365
244.126
90.2995
309.033
222.71
243.676
32.8864
176.242
175.83
257.867
257.176
359.825
413.939
357.217
414.529
161.08
161.323
35.2038
419.17
418.384
339.946
415.133
113.122
93.5195
414.515
70.7349
32.9033
70.6835
231.775
146.663
183.092
137.482
294.779
203.307
231.985
146.062
183.254
137.544
295.022
202.23
76.2216
70.9645
97.2287
71.1225
97.6806
370.746
83.3358
370.701
83.3117
86.2569
209.853
86.7029
209.765
73.1271
142.017
49.4129
66.3956
196.634
72.8785
142.176
49.4584
66.4164
196.601
135.741
247.316
138.396
246.436
76.4138
247.493
202.65
73.4561
256.52
247.763
203.82
73.4856
253.364
155.528
303.739
317.236
287.33
155.492
302.894
316.292
286.176
95.2075
128.7
95.4943
129.363
36.2023
332.93
325.071
331.632
324.159
75.0081
75.2288
75.3689
75.4431
42.3643
42.3979
33.723
59.58
59.1694
33.5661
59.6949
59.2051
52.9795
59.6541
59.0565
59.6777
59.5508
62.9862
62.2885
62.2344
69.1165
75.3752
69.1518
75.3776
59.6232
57.749
56.9627
61.2968
55.9691
65.2791
60.6155
38.8301
38.6564
41.2799
25.9211
41.6262
39.3421
58.7532
38.5877
41.2878
25.8154
41.6398
39.3509
58.8949
46.9458
46.6294
59.1006
46.9439
46.6071
59.602
59.6364
57.7318
56.9618
61.2853
55.9814
58.9417
56.1689
64.0507
60.5449
58.976
62.8403
60.5471
56.0876
59.7508
58.6954
65.0016
58.625
65.1043
58.8174
64.0981
62.8434
62.8112
65.2741
60.6241
72.1349
60.2837
65.8462
68.4654
69.9356
75.8478
74.4997
78.9822
72.1071
60.2716
65.7845
68.4132
69.9051
75.8107
74.4322
78.8789
65.0945
62.774
66.0442
69.1508
79.3499
60.6161
64.5184
64.5533
65.0511
60.6876
64.6788
60.7119
64.6983
62.7496
66.0207
77.163
77.1532
78.3038
75.7436
78.314
75.8481
69.1041
79.375
31.6099
25.6901
31.5614
25.7205
39.9806
40.3189
40.629
61.6067
64.8527
63.2503
62.4857
58.8053
64.0127
67.6722
69.1468
70.3759
73.2689
67.7135
56.6031
60.3762
64.7404
64.6519
63.2115
64.5025
63.107
58.5853
64.4026
66.6866
64.341
64.6364
40.539
41.3405
42.1674
43.117
42.0175
43.5441
40.5244
42.1755
41.3496
43.1257
42.0185
43.5542
39.9758
40.3319
40.6221
64.0892
62.2378
63.6302
65.0437
63.5828
64.3223
63.9163
62.0259
63.5263
64.8747
63.4185
64.2141
61.7505
64.8819
63.4894
62.8731
62.6917
65.2531
63.67
64.7468
64.1464
64.3537
62.6808
65.2943
63.5357
64.5629
64.0788
63.9568
58.7921
64.0029
56.2147
58.9387
56.2289
58.9539
67.6461
63.8128
59.6459
63.8768
59.7349
69.2388
70.389
73.343
67.8057
56.6508
71.191
73.9998
71.2817
67.9972
78.6781
76.4711
79.6906
62.0195
59.0687
76.1928
71.1941
73.9416
71.3015
67.9712
78.623
76.5633
79.7638
62.0895
59.6429
59.1578
76.2414
50.3204
52.0068
50.8794
63.3437
62.7047
63.452
64.1248
64.5816
60.8621
60.1935
64.5848
60.8767
63.4421
63.4935
67.2911
67.2587
68.1434
68.0547
65.2752
62.3417
65.4604
62.6283
67.1374
66.7849
68.5592
67.6998
67.4309
67.481
85.3566
89.3273
88.4282
60.7496
63.0967
60.2538
53.1139
55.5347
56.4136
54.3556
53.8327
56.3864
59.2168
59.1912
53.1037
55.532
56.3145
54.3488
53.8123
56.3166
59.3456
59.3266
51.0418
52.2256
51.4268
49.2434
52.0032
59.3099
58.7914
52.2272
51.138
51.4277
52.0013
49.325
59.2179
59.0317
50.3246
52.0066
50.8781
56.0443
58.9607
56.1946
58.1876
55.5672
55.9985
55.8695
58.8053
56.0792
58.9648
58.2083
56.2592
58.8264
55.6025
56.0338
55.9216
63.2656
62.6019
63.4213
64.1011
64.5336
60.865
60.1926
63.3437
63.388
64.5299
60.8707
65.7718
72.5396
73.3937
66.0246
72.8797
63.175
60.5129
65.0404
64.4518
60.9466
65.7716
72.5389
73.4079
66.0426
72.8822
63.176
60.5136
64.4518
60.9452
65.0412
67.2958
67.2633
68.1195
68.0318
65.2736
62.3408
67.1353
66.7814
65.4647
62.6304
67.9697
67.2983
67.0859
68.3132
68.4235
66.7719
67.4216
68.7172
68.7899
67.2896
61.5719
61.535
72.0414
78.0221
67.9717
67.2968
67.0939
68.3288
66.7831
68.4374
67.4292
68.7616
68.8168
67.2969
61.4843
61.4461
72.0344
68.5439
67.4162
67.6877
67.4687
63.8351
59.4555
61.1978
62.4938
61.1709
62.0688
82.8504
76.0775
71.0958
76.4484
74.7384
82.7689
77.922
78.67
63.8636
59.4679
61.2255
61.1701
62.0938
62.5197
83.0016
76.2399
71.1153
76.5706
74.8673
82.8052
77.9469
78.6807
85.3326
89.3538
88.4169
81.9769
85.6728
81.9847
85.6828
52.5154
25.1909
52.602
25.3373
46.1552
41.5194
40.3481
42.1309
46.0014
41.8833
47.6043
60.1026
58.1412
61.0542
61.2543
62.4277
60.6374
57.3664
59.5047
57.1091
57.6636
53.7316
54.5152
62.0918
64.1105
62.6425
57.4938
56.8037
57.0068
59.8465
65.482
63.9759
62.6704
57.7831
62.0482
66.0217
63.4261
64.1524
67.0048
62.1625
56.6627
65.1233
64.3641
63.1887
58.0086
68.4671
64.815
60.7492
59.6295
58.0452
59.8539
66.6096
66.8935
67.7999
67.5764
66.7461
66.7287
65.2218
66.988
68.0183
66.487
65.1483
61.1574
62.3736
63.8662
62.6456
67.2851
67.6418
66.5339
67.2119
66.6035
59.4143
68.1576
68.6688
62.1834
60.6219
62.1635
60.4942
64.585
61.487
64.4057
60.4774
60.334
59.7889
65.7986
40.7889
42.2628
44.022
45.0775
26.143
24.8599
30.9143
44.0332
29.4555
25.6227
41.6688
29.7168
30.5311
41.9676
44.3497
34.4258
28.2783
25.6771
27.2759
59.6344
58.7813
40.8143
42.2645
40.6208
44.1884
45.0836
26.1976
24.9614
30.965
29.4882
25.5749
41.6833
29.7481
30.4631
41.9964
44.3581
34.2703
28.4126
25.6249
27.4636
37.483
46.1372
41.5284
40.3396
42.1352
45.9988
41.8794
47.5895
46.7906
47.3731
45.908
52.9816
55.6596
53.8567
45.7158
47.2248
45.8267
46.1102
46.3094
46.1582
45.4554
47.3788
48.7777
61.6536
58.4961
54.7242
59.6215
57.5453
62.227
60.1984
52.2243
59.7138
59.59
56.5343
59.8043
61.4391
62.449
59.545
60.2294
59.5748
59.9197
57.2634
56.7777
61.8347
61.5982
63.258
63.4441
59.7916
53.3141
56.01
59.4119
61.0221
61.1121
56.2466
57.1051
60.5046
61.8027
59.3165
62.6248
62.5037
63.4704
65.5187
64.4628
63.1551
63.7064
62.653
60.7763
60.6459
61.5202
64.0566
65.274
64.7421
64.1841
62.5752
63.0084
61.4779
62.3193
46.7342
47.3835
45.9431
53.0047
55.4302
53.9298
45.7132
47.2282
47.1587
45.8262
46.439
46.1172
46.3432
45.4591
47.4222
48.744
61.3681
58.5046
54.4391
59.7464
57.2416
62.2639
60.251
52.0062
59.7151
59.6847
56.2063
59.8345
61.4704
62.4755
59.5768
59.5671
59.8302
57.0073
56.4547
61.9317
61.7049
63.2901
63.4838
59.8175
53.1134
55.8823
59.3108
61.262
60.9495
55.9548
57.0678
60.4599
61.8333
59.3172
62.6567
62.5837
63.5379
65.5163
64.4916
63.1992
63.7738
62.5221
60.521
60.2988
61.3778
64.0631
65.2459
64.7652
64.2337
62.6543
63.0429
61.5888
62.3894
60.0987
58.1271
61.092
61.3037
62.531
60.6253
57.3522
59.4945
56.9977
57.4275
53.7683
54.5514
62.0493
64.0499
62.9834
57.5648
56.8516
57.113
59.7352
62.534
61.8745
61.381
56.1567
56.1985
57.5198
60.5791
60.4958
63.1839
63.3174
65.0454
63.6232
65.3153
64.0432
63.7521
63.3947
63.2598
65.218
64.0069
63.516
64.2079
64.2494
64.7049
65.2651
64.3429
64.3958
62.535
64.7416
63.4713
65.2433
63.4795
61.6246
60.4521
58.852
60.0657
59.8733
60.8634
63.1444
62.4736
61.8731
61.3276
56.165
56.2343
57.5704
60.5664
60.0456
62.8548
63.099
65.0326
63.7134
65.3502
64.0234
63.8702
63.5031
65.2583
64.0666
63.3565
63.8931
64.2743
64.7164
65.2169
64.4263
64.45
63.7559
63.5499
62.6895
65.2172
65.5924
63.5179
61.6025
60.4411
58.8201
58.8505
60.0556
59.8819
60.8717
62.9278
62.0631
61.6471
64.8291
63.1778
65.517
64.1207
59.512
57.8471
62.1644
66.0549
63.3424
64.1283
66.997
62.1704
56.6669
65.1468
64.2685
63.2017
58.018
68.4172
64.8967
67.3289
60.6716
59.0857
56.5487
58.8498
60.3522
70.7745
71.6474
71.1131
60.8304
55.6176
54.0424
58.4304
55.6693
58.8384
68.6393
65.4193
64.4085
65.0582
60.5219
63.2482
45.9069
54.1132
48.5251
58.4535
55.8977
59.6124
57.5118
48.4792
59.6255
62.7808
64.9472
59.1293
59.1719
61.3691
63.1895
63.7325
61.5399
58.1993
58.2535
59.928
67.3968
60.7184
56.5059
58.8741
60.3474
70.773
71.6615
71.1154
60.8453
55.6162
54.039
58.4248
55.661
58.8378
68.7083
65.4882
64.4704
65.126
60.6082
63.3285
45.9075
54.0919
58.4633
55.8608
59.6213
57.4883
59.6624
62.8174
62.5709
59.2145
59.2273
61.3483
63.1612
63.6895
61.5053
58.228
58.2874
60.7297
59.5907
57.9647
59.8032
66.613
66.8978
67.7752
67.5507
66.7424
66.6473
65.2178
66.9847
68.0164
66.4902
65.1523
61.1375
62.3389
63.8082
62.6041
58.5206
57.8625
58.6005
64.6128
65.8004
64.6834
66.2267
64.9244
66.1111
64.6857
64.8497
64.7131
67.5197
65.8696
66.3356
59.5271
57.4227
53.6172
53.4078
55.129
53.3631
54.2878
55.3045
60.7969
56.8609
68.1652
65.464
61.1914
57.0863
55.3673
58.7445
55.9575
65.4281
61.4457
61.3737
54.1476
56.1048
61.7746
68.7895
68.4343
69.7607
64.7347
64.8245
64.6956
62.002
68.6243
66.3666
64.5141
59.2509
65.3567
58.588
57.9524
58.683
64.6073
65.7974
64.6902
66.3615
64.929
66.1475
64.6789
64.8453
64.7198
67.466
65.8767
66.275
53.6094
51.6369
53.4393
55.187
53.3684
54.2949
55.2817
60.7638
56.8311
68.1552
65.4626
61.1428
57.0344
55.4185
58.8029
56.0108
65.4612
61.539
61.3876
56.1753
61.8718
68.7643
68.4498
69.7783
64.7755
64.8391
64.7946
62.1272
68.6536
66.3568
64.5541
59.3101
65.406
67.2874
67.7319
66.6202
67.2781
66.7198
64.6804
64.0375
59.4547
68.2018
68.7264
62.0199
60.727
84.3479
74.1063
81.1323
77.9077
79.4862
77.4314
69.9615
83.8262
79.4338
78.0032
84.2422
74.251
70.0599
66.6635
68.2551
79.7127
78.5126
71.6118
72.4358
66.6177
66.9548
71.5535
74.3173
70.7805
69.5321
72.7767
79.6851
64.8051
75.3112
63.4712
68.1869
61.2042
61.6477
72.4871
79.6294
81.1195
84.6297
82.1735
76.1747
81.7259
80.9246
80.2839
79.6552
78.5
76.8808
76.516
79.9957
78.5428
77.5584
83.8509
81.5645
84.305
74.0777
81.0622
77.8689
79.5568
77.4207
69.9284
66.4677
83.776
79.5965
77.9233
84.3372
74.2167
70.0296
66.6039
68.2122
79.87
78.4376
71.6725
72.4801
66.5973
66.9151
71.5985
74.3833
70.8206
69.5758
72.8416
79.6636
75.1412
64.8686
75.3501
63.5352
68.1872
61.3121
61.7685
72.5317
79.6927
81.2224
84.698
82.1362
76.1268
81.6847
80.9132
80.2782
79.7121
78.6228
76.4773
77.5194
79.9771
78.6416
83.8537
60.0522
59.6864
64.9222
65.0887
66.3033
74.6724
74.7651
74.6989
75.3626
74.735
75.3402
60.5906
59.4315
60.814
59.6535
60.1642
59.5502
66.6785
64.5699
66.1234
65.2077
66.4844
64.5287
64.9481
66.0134
64.9965
66.3222
65.3265
42.9858
41.9438
43.0109
55.0834
55.1788
58.7909
57.4231
52.0711
58.317
65.0124
64.7458
59.4624
61.0326
56.0882
57.4403
56.1414
57.1346
35.6886
42.956
54.1605
55.6779
55.8065
53.5084
59.5259
59.5637
60.2914
59.5994
56.1357
57.3108
57.0279
56.1396
35.6268
42.8475
54.1212
55.4027
55.5897
53.414
59.6374
59.7921
59.7657
60.2676
59.4534
60.3575
54.7966
51.1113
52.6055
47.5914
46.5323
59.2347
59.6326
59.3123
54.7712
52.6296
47.6686
46.5598
59.1202
59.7082
59.6562
58.7791
57.4164
52.0452
58.2958
53.6111
53.6502
59.696
63.0378
61.3197
61.8066
76.5693
75.1842
61.2449
61.7352
76.5712
75.2148
65.0131
65.6631
67.5205
66.3586
64.1215
64.8452
66.8191
81.9535
83.1695
82.1426
83.2729
75.2416
74.6304
74.2254
74.0554
67.4684
66.306
64.1781
64.9018
66.8703
81.989
83.1619
82.2751
83.288
75.2514
74.6562
74.248
74.0001
71.2502
65.4969
71.2423
65.4858
45.0747
46.4681
45.08
46.4782
42.946
43.8824
41.5148
44.578
44.8721
45.247
44.7036
59.2626
58.7439
60.8107
56.9057
58.1381
53.7926
57.9312
56.596
56.3939
53.8848
52.3459
52.4499
60.8402
61.7611
55.8452
62.9552
61.4415
64.3336
60.1204
65.7598
65.1142
64.2746
62.1979
62.1247
65.6107
65.2184
63.9688
61.6435
65.7025
63.4937
61.7025
59.2894
60.9473
59.3524
61.4763
59.9011
61.4838
56.2343
56.6271
41.3103
38.6514
43.9424
42.1534
41.8024
26.1536
40.317
29.409
42.4821
41.0446
40.9504
26.408
27.2485
57.8482
59.2547
57.3121
56.1547
54.9612
56.7034
41.8111
42.7531
55.9037
52.3222
47.6422
37.5946
58.1134
59.7813
57.9039
59.661
58.5311
60.3372
58.8309
38.9471
40.1038
36.0629
40.8647
39.8513
34.7181
54.4839
34.1361
59.4684
57.3671
41.3017
38.6544
39.5469
43.9312
42.1601
41.8207
26.1473
40.1402
29.2022
42.498
40.9798
41.0589
26.1409
27.2674
57.8153
59.2315
57.5528
56.0981
56.8604
54.9949
41.8218
42.7741
55.9163
52.0488
47.626
37.6095
58.0198
59.6971
57.9638
59.6356
58.7219
60.3862
58.9624
59.6245
38.9395
40.1143
40.8243
39.8041
34.6655
54.588
33.9711
59.5075
57.3596
43.0565
43.8892
40.1724
41.4764
44.5591
44.8482
45.2238
44.6813
48.0023
47.1117
45.3402
52.285
51.5849
47.2015
46.835
44.2634
44.7476
44.2224
44.9813
44.9687
46.7108
55.6776
57.6349
60.0105
59.3239
35.0182
34.863
60.0919
60.2428
65.0955
59.9386
60.0899
60.9846
47.9791
47.0784
52.2661
51.5628
52.8842
45.3657
47.1767
46.8038
44.2897
44.7383
44.2469
44.959
45.0018
46.7493
55.6596
57.6243
60.4186
59.6394
35.2043
60.3202
65.1135
64.6772
61.2615
60.2227
60.3448
59.2595
58.7356
56.8939
58.1703
53.7901
58.5419
57.9202
56.5703
56.3965
53.91
52.365
52.4778
60.8268
61.7497
55.8707
54.443
53.317
52.8878
58.2775
56.8476
58.9365
59.3804
58.06
57.8639
63.3184
62.7348
62.6795
62.9644
62.294
62.5832
56.3788
59.3228
62.7879
63.0576
60.5206
60.886
53.3401
52.9204
58.2986
56.8636
59.0083
59.396
63.5493
63.7566
62.6746
62.7732
62.4712
62.7452
56.5197
59.2338
62.7514
60.5449
60.8824
62.673
64.8716
60.1261
68.8907
65.2404
65.6561
56.3797
54.4733
49.7757
59.4043
60.6182
60.8359
61.9132
62.1973
56.3931
59.9725
68.8634
65.2352
65.6369
56.3746
54.4546
55.0343
49.6846
59.4243
60.7792
62.096
63.2673
62.2915
63.7002
56.4806
60.1258
65.728
65.0969
64.2426
66.4204
68.9826
60.6901
59.3748
59.111
69.2058
68.2179
68.0433
66.919
63.3023
61.1129
70.1869
69.2694
71.6364
74.5654
73.9549
65.7373
66.4209
60.6169
60.6777
59.3133
69.1894
68.1242
68.0393
66.8339
63.2887
59.2544
70.1675
69.1738
74.6124
74.0015
65.6372
62.127
65.2354
65.5938
64.0005
65.7057
63.4837
61.7101
71.1938
71.3777
60.7521
70.5984
67.7989
69.2981
64.6679
62.5632
68.9115
65.0812
68.5469
67.7693
68.9674
69.6118
70.4314
75.3288
75.0534
78.5727
76.8836
74.9305
65.2625
79.9326
80.3544
78.4304
80.5198
81.4027
77.3352
76.5433
78.3536
80.1762
80.0102
81.0709
78.9178
77.3079
80.4222
80.2719
81.8341
79.8823
71.1886
71.3459
60.7217
70.5519
67.7465
69.2527
64.6681
62.5463
68.9552
65.0159
68.551
67.7639
69.0145
69.613
70.4021
67.6288
75.4063
75.317
78.6094
77.1182
75.1561
65.2542
80.0056
80.3886
78.4992
81.4718
77.2781
76.4696
80.3142
78.5628
80.2516
81.1368
78.8437
77.2299
81.946
80.5711
80.3455
79.8972
66.4532
65.2577
62.7712
63.7247
63.7218
63.2585
64.1869
66.0279
64.8228
64.8159
59.9071
70.6042
63.1605
62.0983
71.3944
61.1126
61.8103
59.7137
61.2772
64.3499
63.7685
63.0422
61.2339
62.3431
61.9876
68.2865
67.4756
65.0609
63.298
60.6547
60.7124
60.6703
64.6366
62.8956
62.8823
61.287
61.2333
65.0741
63.312
60.7496
60.6777
60.7057
61.3028
61.2483
64.6671
62.9169
62.9152
66.436
65.2408
63.7003
62.7342
63.6849
65.9926
64.7988
64.7797
63.2422
64.1702
76.553
77.2561
75.3809
76.5339
77.2196
76.9233
79.7139
75.2856
75.1139
74.8564
77.2175
76.9216
79.7233
75.4335
75.143
77.2214
59.8981
70.6026
63.1546
62.1064
71.3966
39.1271
40.7259
48.8892
50.032
51.5793
55.3965
54.5858
54.3114
27.7461
52.0154
25.2542
47.2412
50.7527
53.9378
39.0779
40.6749
48.8479
50.0805
42.7022
55.3581
54.5859
54.2974
27.7024
51.9697
25.1813
47.2418
50.6655
53.9037
40.2007
40.4576
39.9058
40.5388
37.1092
62.4051
62.7717
63.4319
66.3223
63.2665
62.4267
61.8214
63.3328
60.3274
60.3682
62.8432
60.1893
59.3207
62.565
59.3987
61.2028
60.2231
60.5481
60.9472
63.8852
62.2512
60.6299
58.7151
60.524
63.8773
62.3537
62.2203
58.6868
60.5226
69.1926
67.5776
68.1169
68.5067
54.1244
52.7024
54.2096
52.5117
66.9434
68.9677
67.1633
61.4654
61.9023
62.6295
60.5964
71.0362
67.7234
69.7569
71.985
71.1781
72.8326
71.9812
69.7059
70.6163
69.2795
70.0272
71.6721
60.5222
59.6941
59.7488
60.0212
60.5269
60.8398
61.1942
60.9151
61.1219
61.3154
61.9357
59.5929
61.2558
63.5955
64.6354
63.2826
64.6359
63.8441
63.5038
63.8749
62.9663
59.5757
59.7674
59.4977
59.7932
59.6156
59.9071
59.9777
59.9163
52.4152
62.5218
65.9065
74.0932
63.7712
71.3137
65.7693
74.2401
63.7541
71.4495
68.3637
67.4848
40.8899
40.7922
40.6613
41.606
41.0703
40.5474
42.8503
42.8791
42.9172
42.2111
42.6392
43.1336
43.7035
44.5851
44.9489
42.9712
43.4097
44.5163
45.4148
43.7581
43.4868
40.8925
40.6852
40.8002
40.5551
41.6277
41.0731
42.8657
42.8799
42.931
42.2339
42.6336
43.142
43.7117
44.5955
44.9618
42.9774
43.4065
44.5293
45.4219
42.9345
43.7695
43.503
40.1901
39.9119
40.4288
39.6794
39.8937
40.5286
37.0657
65.5544
60.3208
62.5046
65.0088
63.8582
65.2554
65.4855
66.4519
64.6904
65.8286
63.4767
65.6876
65.3861
65.499
64.6273
65.7728
60.1985
65.5179
62.4771
64.9368
63.6606
65.2633
65.4798
66.4144
64.5313
65.8452
63.3053
65.6427
65.4086
65.5058
64.4868
65.7923
62.4112
63.3193
61.64
65.0079
63.3747
61.7793
65.6379
63.4196
60.3354
60.524
63.1531
60.3837
59.53
62.9285
59.6666
64.0557
66.1523
63.9394
64.0457
65.1881
64.7112
64.7577
64.7762
64.7625
64.2809
65.1727
64.7455
64.731
63.8142
64.0959
64.1479
64.5574
64.5662
64.3948
63.9041
64.4754
64.246
64.1684
64.5179
64.3361
64.7419
65.6486
65.3321
65.0888
63.0431
64.3136
64.1497
63.1653
63.9976
66.0132
63.908
65.0287
64.6988
64.719
64.6921
64.7583
64.1596
65.0717
64.5493
64.6317
63.8803
63.6192
63.8924
64.3975
64.3746
64.2439
64.0577
64.3336
64.2508
63.6574
64.2548
63.9666
64.6726
65.6187
65.2661
65.0643
62.9912
64.2828
64.1162
63.1358
61.1736
60.2065
60.518
60.9344
63.8806
62.2462
60.6177
58.6932
60.5036
63.8599
62.3428
62.2021
58.6781
60.515
69.1237
67.6116
68.1487
68.4307
58.0318
56.9087
57.078
57.714
58.8815
57.0542
56.1597
55.2532
55.2482
56.1603
55.2783
58.9819
57.0502
57.0878
64.7269
65.9185
64.1116
66.277
60.0343
59.9386
60.6174
59.1853
65.4434
66.2381
64.9834
66.7213
56.6206
56.886
57.5927
55.9854
62.2636
64.8606
62.9867
64.1848
58.0559
56.9378
57.1026
57.7477
58.8928
57.0652
56.1831
55.2681
55.2728
56.17
55.2887
59.0069
57.0653
57.1127
64.6265
65.8188
66.2108
63.9857
60.0244
59.9121
60.595
59.1704
65.4731
66.232
66.7762
64.9721
56.6021
56.8644
57.5745
55.9664
62.301
64.8769
63.0097
64.2101
54.1975
52.6978
54.2821
52.5021
66.9441
68.9241
67.1445
61.3663
61.8707
62.5627
60.5255
56.6777
54.3356
55.4403
55.7944
62.5313
61.0673
62.1602
61.4923
50.2932
50.4452
50.1617
50.7855
58.1709
60.4078
59.7255
58.875
55.5136
52.8383
54.5873
53.5706
62.5808
62.0595
59.7821
59.8142
58.0644
60.4911
60.9715
60.4815
56.6508
54.3401
55.3976
55.8048
62.5075
61.1807
61.4627
62.2648
50.3248
50.4748
50.2002
50.8101
58.1793
60.4245
58.8976
59.7331
55.5181
52.8509
54.5977
53.5783
62.6017
62.1363
59.8121
59.8555
58.1068
60.5265
61.0561
60.5222
71.1224
67.8746
69.8958
72.0395
71.2115
72.9066
72.057
69.8156
70.7395
69.4192
70.0889
71.7775
60.4772
59.7535
59.5585
59.996
60.322
74.702
72.4284
73.5841
76.4522
70.3951
71.2473
71.8994
70.3872
70.3826
81.9196
79.0705
75.3578
77.6683
76.9449
79.8352
77.1127
78.1114
77.3132
61.0001
62.2837
60.8599
57.4756
59.7531
59.5993
60.0048
61.4297
60.8968
74.8513
76.1707
75.2194
76.5069
74.6644
72.3951
73.5668
76.4077
70.3067
71.1869
71.9053
70.4051
70.3734
81.8844
78.9878
77.793
75.3739
76.9524
77.3035
79.8487
77.1479
78.0824
62.3365
61.0792
60.9101
61.4888
58.9171
60.949
59.8388
59.6432
60.0518
76.1543
74.9036
75.2801
76.597
59.0341
55.9742
59.068
56.1525
53.3559
54.2368
57.541
52.8748
53.4708
54.7501
52.1098
51.7053
51.2896
52.0601
50.38
51.1176
51.9477
51.488
51.339
58.5386
55.229
55.2923
63.0921
62.7579
62.0493
62.5249
62.4064
63.2554
63.8941
63.5527
63.4898
64.5194
66.0297
65.1283
60.2196
64.2564
63.7986
60.5732
66.449
63.6902
64.5874
63.9575
63.0383
62.2174
63.0143
63.3025
66.8314
68.8707
68.2932
66.8206
68.4242
70.2221
69.3863
67.7601
69.4459
68.014
69.8916
69.895
68.6015
69.7228
64.1739
63.2059
64.3725
65.1056
62.953
63.4427
62.4843
68.594
67.596
65.6375
64.9963
65.4823
65.2506
64.0624
67.3204
64.4511
63.6919
68.6893
68.1267
68.3582
67.2826
67.6203
65.7212
65.0588
65.5297
65.43
67.4199
66.598
66.2227
67.3768
68.9449
67.5235
68.0107
84.9874
62.2731
78.6473
65.6642
77.6322
62.6591
85.4969
90.1173
76.738
89.2784
82.0337
76.0692
58.9421
62.2587
61.8675
61.1751
62.1807
61.5656
62.8434
61.394
68.5047
53.3136
52.7529
55.9276
55.624
55.9249
56.6243
56.9084
55.6834
55.9946
56.4659
49.1375
54.5929
54.9424
55.5338
55.3638
55.1044
56.3583
56.1519
55.4675
55.8196
56.4471
59.3386
59.799
59.3967
59.9168
60.1805
53.2864
52.7834
56.0049
55.6396
55.9473
56.6576
56.8603
55.7507
55.9488
56.3861
49.1173
54.5733
54.8923
55.3453
55.2664
55.1133
56.4441
56.1382
55.527
55.8081
56.3504
59.4539
59.9071
59.8161
59.4157
59.9789
53.976
49.1885
52.0287
51.7601
53.9461
53.5763
49.9811
53.5006
52.9431
48.2226
47.5856
46.2003
48.5318
47.4136
53.853
59.1939
58.8144
51.7649
53.9492
53.5803
54.0378
49.2129
52.0589
53.504
49.9825
52.9475
53.8548
48.2914
47.6059
46.2257
48.5309
47.4205
58.9903
59.1088
53.3732
54.246
53.4721
52.8796
54.7528
51.274
52.1066
51.6984
52.0646
51.037
58.5352
55.2081
55.289
50.3779
51.122
51.9469
51.4883
51.3417
54.7318
53.9826
54.6006
54.6231
55.3091
56.1014
57.7584
58.1239
55.1769
56.7992
56.4731
58.4189
54.9655
56.1599
55.8781
55.1609
54.7821
55.7721
55.1599
56.0113
55.017
55.7196
55.7165
58.2058
54.7857
54.0216
54.6784
54.6412
55.836
56.1303
55.3233
58.1718
57.7586
56.5025
58.4216
55.2018
56.8527
56.0688
55.0706
55.7591
55.7493
58.2315
54.982
56.1931
55.9171
55.184
54.809
55.8146
50.9963
55.1765
62.9957
62.661
61.8164
62.4231
62.2634
63.2153
63.8522
63.5032
63.4517
64.4839
65.1028
66.0211
64.3392
60.1586
62.7222
63.7956
60.5924
63.8813
62.9324
63.4615
62.9104
66.4576
63.6157
62.8842
64.6024
67.6456
64.9336
71.6688
68.8788
71.9313
65.7185
66.2336
66.2196
68.5621
67.8132
69.3572
73.2847
69.2401
65.89
67.7344
67.581
69.1929
73.279
69.254
62.2962
60.364
62.847
63.9685
60.9449
60.9206
61.9315
65.3322
67.6452
64.9351
71.7709
71.667
68.8783
71.9302
65.7194
66.2306
68.5643
67.8234
69.3725
73.3076
69.2645
65.918
67.7508
67.6068
69.1952
73.2892
69.2644
62.297
60.3648
62.8465
63.9702
60.9041
60.944
60.9205
65.3335
66.8391
68.8755
65.9142
68.2979
66.83
68.4069
70.2047
69.3637
67.7242
69.4122
67.9796
69.8693
69.8615
68.5828
69.7051
64.1725
63.2047
68.5915
67.5931
64.3762
65.1121
62.9577
63.4456
62.4857
68.3927
69.4099
69.4497
68.2659
67.0123
68.0349
68.4477
68.6045
68.0929
66.5199
68.0088
68.6416
69.3164
70.3623
68.7435
68.9486
70.1734
69.3783
68.4173
66.9465
68.3743
65.8776
66.8479
61.971
61.5845
73.66
77.2413
78.6354
76.3093
72.6084
72.4996
72.239
77.9382
73.5901
74.7135
73.9346
76.0226
74.8841
79.3162
78.0826
68.3904
69.4112
69.0647
69.4497
67.0219
68.284
68.4787
68.0503
66.5301
68.0309
68.6314
68.1096
66.9497
68.3767
68.659
69.324
70.4218
68.7783
68.9746
70.1729
69.3857
68.4358
61.8907
61.5009
73.5838
78.588
76.2489
72.5364
72.4706
77.8689
75.3234
73.5453
80.7245
75.9895
74.8232
78.0228
65.6471
65.0007
65.2549
65.4917
64.06
67.2896
64.4377
68.1114
68.6572
67.2463
67.6051
68.3347
67.3881
66.5873
66.2108
67.9748
69.9542
68.9479
67.4867
68.0082
65.727
65.0634
65.537
65.4341
64.1795
63.6719
63.0011
65.7931
67.5561
66.4624
62.0182
65.11
65.2071
65.5684
60.1772
59.7641
60.0626
60.5627
61.5347
64.6797
66.5485
63.9126
61.1427
64.4142
64.2903
61.595
63.7967
80.168
77.2479
74.2286
78.2055
75.4814
75.468
72.4112
75.4104
74.434
78.5668
76.7108
81.5602
87.6084
85.6172
82.8651
77.9148
79.6295
80.2208
78.6066
76.9358
81.5684
77.2129
74.8702
75.2306
73.3203
73.4455
77.9395
71.8249
74.2113
74.4765
74.2243
67.5075
66.4108
63.0261
65.7884
65.1059
62.0463
65.2042
60.2235
59.781
60.1071
65.6244
60.5828
61.1506
64.4095
64.2838
61.6125
63.7943
64.7215
66.6004
63.9551
80.3412
77.4267
74.2248
75.4428
75.4684
72.4582
72.5044
75.3905
74.1495
78.6127
76.7496
81.5695
87.6055
85.5988
82.8823
77.8801
80.1725
75.5456
81.6344
77.2337
75.2598
74.8896
75.1689
73.2726
77.9514
71.7913
74.1678
74.4798
74.1898
84.9939
62.2955
78.6639
65.6965
77.638
62.6603
83.5357
90.136
89.2848
82.0077
76.0858
79.295
83.1615
78.9531
67.0958
81.4189
79.2517
83.1362
78.9576
67.1098
48.2136
39.5014
48.3634
44.8933
42.2933
26.0929
44.2201
27.5317
47.5617
45.2771
44.4905
45.1018
45.709
45.1118
46.9529
45.592
48.0724
44.6081
48.1946
39.4436
44.8875
42.2762
26.2634
44.196
27.6256
47.5643
45.2784
44.5327
45.0838
45.6579
45.1281
46.9731
45.6304
44.6988
48.0743
45.2947
46.7209
47.9064
41.1613
44.5534
42.5905
45.3109
41.3353
40.7823
41.2521
40.3708
38.6578
40.7279
40.8385
39.8854
39.4518
42.6805
40.3092
40.4406
45.3199
47.9364
41.3629
42.9715
43.138
44.7748
44.242
44.823
45.5922
46.575
45.5906
45.0457
44.597
44.0825
44.3617
43.0647
42.3822
44.4039
45.7442
43.9392
44.4527
46.0412
41.2995
46.6909
58.8449
59.5319
58.9762
59.2398
57.8767
59.6619
60.2754
60.8988
62.29
62.1429
63.8184
63.6526
64.1171
62.5248
62.6507
62.1508
61.7857
62.6781
59.8279
58.6905
56.9736
60.4385
59.3664
60.7244
61.1167
63.7425
56.4845
56.8208
56.816
53.0577
52.5694
56.1741
56.6168
56.5113
57.8634
54.0739
56.8162
53.1333
57.6173
57.3907
54.7447
56.892
58.538
56.0333
53.8784
53.4327
51.6957
51.0253
59.9747
55.0995
57.687
60.3184
60.4207
63.0479
60.2776
61.9527
64.8473
64.9123
64.6669
64.1642
64.0112
61.4955
63.3906
62.6344
58.2193
57.91
57.19
56.5744
55.1345
55.1903
54.897
54.61
58.2362
59.484
64.8442
63.446
64.3053
65.4737
63.2028
61.524
61.8861
60.4448
60.4541
60.8821
63.6971
63.4178
64.0668
62.9425
58.9448
56.1493
57.4014
60.5819
67.1515
67.3511
65.365
62.4594
65.2811
63.0075
66.8925
68.3759
63.6888
66.2853
65.2538
66.8011
66.7524
68.5083
68.4443
60.5107
58.6762
66.1386
64.6401
64.3369
62.5755
61.6087
59.896
57.3049
67.8521
61.7895
63.7865
65.9518
64.9523
65.3846
65.4658
68.6889
70.3838
65.4013
68.5291
62.0836
64.0318
60.2091
59.6055
55.3422
54.5726
55.9747
53.8895
58.4603
56.4193
57.6448
59.0427
66.3926
63.2288
63.8659
65.1703
63.9739
66.4001
66.0189
66.5092
66.396
67.7759
67.5176
68.4092
68.4291
67.3717
67.9432
68.0205
65.9725
66.6893
65.5179
66.3188
66.8762
67.8782
67.6843
66.9765
68.3797
65.8803
65.8943
65.4827
64.5033
64.024
64.5649
61.6807
62.1262
57.6056
55.7865
57.1545
56.2298
64.1151
63.5022
62.3639
62.8922
63.5904
63.405
63.0042
60.1237
58.6408
63.7046
61.5226
59.0119
70.9495
66.9239
66.7203
66.4568
67.7897
66.0402
67.4563
66.8638
67.1541
66.6201
68.0763
66.0972
67.5485
68.1501
67.2899
64.2776
62.1042
62.2545
61.8308
63.826
63.0264
63.6786
64.7083
64.1831
63.6345
64.7527
63.4185
64.9178
63.1826
65.6625
63.6119
64.0715
65.217
63.3896
63.5665
61.0736
62.6853
62.7225
62.0137
62.7378
64.5326
69.3545
66.7713
67.6056
66.8518
68.8099
67.3447
63.5899
65.0983
59.8074
61.5272
58.8045
57.3872
59.0857
58.7901
59.0696
57.2579
57.2701
58.8451
59.0813
60.738
59.6754
60.9386
62.3281
61.298
61.9761
62.3791
62.1331
61.2317
63.1177
63.1742
62.8702
62.7189
62.8155
61.5139
61.5224
61.9709
62.6766
62.2714
64.0046
62.3253
61.9633
61.086
61.1663
64.8563
62.9733
59.464
65.8233
62.5642
61.3479
63.4376
69.8961
59.822
66.0203
60.4525
62.9045
63.7641
70.0975
68.6349
73.3197
42.0089
40.9894
41.4378
41.5537
41.5839
41.929
41.1776
42.4231
38.8646
42.9124
44.6238
41.1424
40.8855
43.2871
43.2178
41.8657
42.1093
42.2048
40.3025
41.6402
43.3638
42.4699
22.0705
42.4975
36.0583
33.9832
23.5832
22.2503
46.5589
38.6748
40.6319
34.1845
25.5386
32.6953
26.5444
24.4727
31.8382
22.6547
20.7221
28.8017
44.4541
42.5191
42.6299
43.5956
42.5925
43.989
42.0787
42.7297
41.7184
43.4078
42.5371
27.6667
24.8732
33.3983
40.5321
33.6244
37.4822
31.3489
56.9332
57.6369
57.1519
56.8071
56.0069
54.6682
56.6018
57.3752
56.4395
54.7447
57.0964
21.444
25.6077
23.5103
39.1117
42.9981
37.6006
38.3355
28.0071
41.9655
43.637
29.2844
41.927
43.1761
41.869
42.5471
43.3
40.1499
43.3289
42.6432
39.6853
49.6342
51.7415
48.63
26.6522
27.2394
31.1557
30.8267
29.8895
49.8571
45.6648
29.325
44.2597
37.2886
58.0443
59.7096
57.8395
58.5315
58.5635
58.3969
57.7865
58.0643
60.8878
60.3749
60.7081
59.5755
59.633
58.7024
60.5347
60.4725
43.6448
42.2804
40.2888
42.7977
40.0148
40.9211
32.2826
40.5485
36.4241
39.9876
35.3124
55.2063
54.9413
52.6793
35.2539
34.0683
33.0474
38.4162
38.518
44.7556
34.7562
30.78
31.7492
35.0158
55.0736
53.7933
54.9973
52.2391
59.8856
59.5212
59.8718
58.1535
42.022
40.9942
41.4517
41.5588
41.9317
41.1746
42.3877
38.8861
42.9192
44.6378
41.6652
41.1092
40.879
43.2786
43.2059
41.8779
42.1211
42.2187
40.2852
41.6211
43.364
42.4465
21.9618
42.5012
36.1534
33.8165
23.5079
22.1332
38.8395
40.6075
34.1704
25.5145
32.5598
26.6232
24.578
31.9719
20.8685
36.0682
28.7407
41.9408
44.4415
42.6309
42.3119
43.608
42.5889
43.9984
42.1075
42.7372
41.7202
43.4136
42.5447
27.4171
24.737
33.3282
34.4105
37.4328
31.3013
57.2288
57.9276
57.0481
55.9255
54.6921
57.05
57.6775
57.3352
21.4871
25.5817
23.462
39.0821
43.0032
40.6308
37.5701
38.3661
27.9487
43.6392
29.2903
41.9543
43.198
41.861
42.5525
41.0312
43.3178
40.1113
35.5461
43.3285
42.6434
39.6555
49.341
51.5845
48.4761
26.7142
27.2025
25.9876
30.786
29.9316
49.8788
45.6748
29.4359
44.2627
32.2765
37.3081
57.9779
59.8128
58.4441
58.6349
58.8249
58.3149
57.9163
58.1155
60.8798
60.4279
60.7234
59.8737
58.7827
60.6359
60.5464
43.6466
40.2862
42.745
39.9295
34.3434
40.9092
40.497
36.3975
55.2177
55.0661
52.7873
35.1997
33.0812
38.148
38.5941
34.8709
30.2874
30.8381
31.8526
35.1036
55.0388
53.7306
55.1671
52.1484
59.9641
58.2092
59.5706
59.9138
58.4614
58.1175
45.4188
46.7765
47.9261
41.2206
44.4771
42.5475
45.286
43.6296
41.346
40.7744
40.3574
41.2523
38.6528
40.7109
40.8412
39.8823
39.5453
42.7097
43.1798
45.3234
47.9333
41.3688
42.986
43.1483
44.2664
44.8142
45.5727
46.5558
45.5747
45.0366
44.5885
44.0714
44.3493
43.0452
44.3821
42.3716
45.7537
44.756
43.9787
43.2841
44.4645
41.9783
46.0657
41.3333
46.7005