# y+ ()       
# Time        	patch         	min           	max           	average       
10            	sfera1	1.387490e+02	1.487645e+04	4.093770e+03
10            	sfera2	5.542272e+02	1.455794e+04	4.018009e+03
20            	sfera1	2.543097e+02	1.491274e+04	3.744055e+03
20            	sfera2	3.822837e+02	1.470054e+04	3.681934e+03
30            	sfera1	2.804005e+02	1.491586e+04	3.450448e+03
30            	sfera2	2.369046e+02	1.473379e+04	3.412703e+03
