/*--------------------------------*- C++ -*----------------------------------*\
| =========                 |                                                 |
| \\      /  F ield         | OpenFOAM: The Open Source CFD Toolbox           |
|  \\    /   O peration     | Version:  2206                                  |
|   \\  /    A nd           | Website:  www.openfoam.com                      |
|    \\/     M anipulation  |                                                 |
\*---------------------------------------------------------------------------*/
FoamFile
{
    version     2.0;
    format      ascii;
    arch        "LSB;label=32;scalar=64";
    class       volScalarField;
    location    "200";
    object      nut;
}
// * * * * * * * * * * * * * * * * * * * * * * * * * * * * * * * * * * * * * //

dimensions      [0 2 -1 0 0 0 0];

internalField   nonuniform List<scalar> 
187974
(
0.0420135
0.0419165
0.041855
0.0418185
0.0418194
0.0418596
0.0419024
0.0420407
0.0424186
0.0423699
0.0423262
0.0422921
0.0422929
0.0423298
0.0423548
0.0424459
0.0426256
0.0426147
0.0425858
0.0425555
0.0425563
0.0425881
0.0425985
0.0426535
0.0428244
0.0428602
0.0428725
0.0428532
0.0428539
0.0428689
0.0428389
0.0428527
0.0430729
0.043119
0.0431311
0.0431444
0.0431451
0.0431314
0.0430995
0.0431009
0.0433255
0.0433928
0.0433939
0.0434332
0.0434341
0.0433977
0.0433788
0.0433509
0.043574
0.0436727
0.0436767
0.0437088
0.0437096
0.0436798
0.043658
0.0435914
0.0438291
0.0439591
0.0439605
0.0439755
0.0439763
0.0439633
0.043944
0.0438447
0.0440869
0.0442643
0.0442492
0.0442477
0.0442483
0.0442511
0.0442461
0.0441076
0.0443728
0.044557
0.0445349
0.0445373
0.0445374
0.0445372
0.0445354
0.0443832
0.0447953
0.044854
0.0448403
0.0448434
0.0448434
0.0448411
0.0448433
0.0448273
0.0451405
0.0451675
0.0451512
0.0451559
0.0451557
0.0451506
0.0451467
0.0451569
0.0454995
0.0454826
0.0454766
0.0454766
0.0454764
0.0454772
0.045464
0.0455195
0.0458251
0.0458146
0.0458179
0.045819
0.0458192
0.0458188
0.0457965
0.0458447
0.0461982
0.0461854
0.0461867
0.0461873
0.0461875
0.0461874
0.0461716
0.0462121
0.0466111
0.0465972
0.0465986
0.0465988
0.0465988
0.0465988
0.0465994
0.0466096
0.047062
0.0470619
0.047062
0.0470618
0.0470618
0.0470619
0.0470624
0.0470679
0.047592
0.0475893
0.0475897
0.0475898
0.0475898
0.0475897
0.0475893
0.0475917
0.0481957
0.0481927
0.0481928
0.0481929
0.0481929
0.0481928
0.0481926
0.0481957
0.0488697
0.0488679
0.048868
0.048868
0.048868
0.0488679
0.0488678
0.0488697
0.0402887
0.0425869
0.0426559
0.042697
0.0426978
0.042652
0.0425841
0.0402646
0.0409102
0.0428624
0.0429196
0.042957
0.0429575
0.0429158
0.04286
0.0408669
0.0393917
0.0426487
0.0427408
0.0428206
0.0428289
0.0427919
0.0426933
0.0428926
0.0401117
0.0429851
0.0430061
0.0430733
0.0430805
0.043045
0.0429946
0.0429697
0.0407224
0.0433155
0.043265
0.043287
0.0432939
0.0432754
0.0433474
0.0432536
0.0413269
0.0435615
0.043599
0.0435076
0.0435016
0.0435526
0.0435918
0.0435074
0.041944
0.0438071
0.0438365
0.043727
0.0437133
0.043783
0.0438322
0.0437619
0.0425753
0.0440646
0.0440756
0.0439911
0.0439836
0.0440286
0.0440819
0.0440195
0.0431811
0.0443109
0.0443057
0.0442719
0.0442719
0.0442704
0.0443164
0.0442536
0.0437785
0.0445487
0.0445663
0.0445651
0.0445641
0.0445632
0.0445594
0.0445058
0.0443339
0.0448304
0.0448289
0.0448302
0.0448305
0.0448292
0.044828
0.0448158
0.0448307
0.0451088
0.0451034
0.0451046
0.0451051
0.0451036
0.0451102
0.0450875
0.0453187
0.0454091
0.0454021
0.0454029
0.0454031
0.0454021
0.0454086
0.0453924
0.0457421
0.0457325
0.045734
0.0457351
0.0457353
0.0457351
0.0457327
0.0457156
0.0460904
0.0460906
0.046093
0.0460962
0.0460976
0.0460971
0.0460945
0.0460732
0.0464827
0.0464863
0.04649
0.0464913
0.0464913
0.0464909
0.0464895
0.0464712
0.0469234
0.0469286
0.0469313
0.0469318
0.0469317
0.0469314
0.04693
0.0469155
0.0474252
0.0474299
0.0474315
0.0474322
0.0474321
0.0474317
0.0474305
0.047427
0.0480055
0.0480076
0.0480064
0.0480065
0.0480065
0.0480062
0.0480088
0.0480041
0.0488775
0.0488757
0.0488747
0.0488747
0.0488747
0.0488747
0.0488761
0.0488769
0.0404878
0.0450233
0.0451004
0.0450936
0.0450937
0.0451015
0.0450241
0.0404814
0.0410691
0.0451194
0.0452242
0.0452207
0.0452159
0.0452224
0.0452331
0.0410728
0.039918
0.0452133
0.0453311
0.0453307
0.045326
0.0453319
0.0453231
0.0432092
0.0406629
0.0450561
0.0453261
0.0453291
0.0453229
0.0453239
0.0453215
0.0430602
0.0412612
0.0450614
0.0453464
0.0453599
0.0453512
0.0453471
0.0453366
0.043206
0.0418605
0.0450824
0.0453731
0.0453922
0.0453895
0.0453834
0.0453662
0.0433445
0.0424562
0.0451302
0.0454293
0.045439
0.0454435
0.0454457
0.0454225
0.0435018
0.0429596
0.045059
0.045275
0.045258
0.0452488
0.0452748
0.0452664
0.0439052
0.0434951
0.044691
0.0447194
0.0446951
0.04468
0.044707
0.0447197
0.0443068
0.0439672
0.0445766
0.0445246
0.0445017
0.0444965
0.0445063
0.0445277
0.0445683
0.0443295
0.0448073
0.0447714
0.044745
0.0447407
0.0447485
0.044772
0.0448331
0.0448233
0.04508
0.0450582
0.045055
0.0450471
0.045055
0.0450555
0.0451108
0.0452977
0.0453735
0.0453722
0.0453663
0.0453643
0.045367
0.0453726
0.0454086
0.0457447
0.0456935
0.0456917
0.0456915
0.0456912
0.0456911
0.0456922
0.0457324
0.0460903
0.0460466
0.0460485
0.0460535
0.0460561
0.0460553
0.046049
0.0460884
0.0464831
0.0464363
0.0464425
0.0464462
0.046446
0.0464444
0.0464412
0.0464819
0.0469243
0.0468724
0.0468779
0.0468819
0.0468814
0.0468797
0.0468752
0.0469221
0.0474296
0.0473667
0.0473691
0.0473639
0.0473606
0.0473656
0.0473658
0.0474261
0.0480065
0.0479268
0.0479167
0.0479116
0.0479116
0.0479116
0.0479234
0.0480005
0.0488747
0.0486679
0.0486677
0.0486678
0.0486678
0.0486678
0.0486677
0.0488746
0.040535
0.0450465
0.045137
0.045083
0.0450812
0.045139
0.0450685
0.0405277
0.0410785
0.0451458
0.0454404
0.0453173
0.0453079
0.0453074
0.0453917
0.0410969
0.0397307
0.0452489
0.0456168
0.0454874
0.0454807
0.0454806
0.0455689
0.0432337
0.04049
0.0452242
0.045812
0.0456644
0.0456591
0.0456445
0.0458044
0.0431032
0.0410841
0.0452515
0.0459862
0.0459022
0.0458994
0.0458813
0.0459684
0.0432685
0.0416665
0.0452911
0.0461536
0.0461604
0.0461556
0.0461584
0.04613
0.0434538
0.0422406
0.0453655
0.0463199
0.0464402
0.046434
0.0464541
0.0462956
0.0438266
0.0428042
0.0452186
0.0464936
0.0467456
0.0467383
0.0467576
0.0464676
0.0440427
0.0433519
0.04469
0.046628
0.047042
0.0470374
0.0470484
0.0466235
0.0442856
0.043874
0.0445307
0.0466124
0.0472795
0.0472851
0.0472867
0.0466309
0.0445484
0.0443682
0.0447745
0.0467727
0.047542
0.0475874
0.0475371
0.0467806
0.0448222
0.044859
0.0450531
0.0469663
0.0476721
0.0477387
0.047668
0.0469457
0.0451103
0.0453248
0.0453748
0.0460236
0.0478371
0.0479329
0.0478315
0.045943
0.0454102
0.0457452
0.0456945
0.0456608
0.0475286
0.0475865
0.0475266
0.0456702
0.0457327
0.0460901
0.0460454
0.0460238
0.0460297
0.0460485
0.0460291
0.0460245
0.0460878
0.0464821
0.0464327
0.0464054
0.046422
0.0464239
0.0464211
0.0464117
0.04648
0.046922
0.0468633
0.0468691
0.0468675
0.0468619
0.046874
0.0468726
0.0469183
0.0474198
0.0473502
0.0473553
0.0473496
0.0473496
0.0473496
0.0473564
0.0474176
0.0479971
0.0479127
0.047911
0.047911
0.047911
0.047911
0.047911
0.0479938
0.0488737
0.0486678
0.0486677
0.0486677
0.0486677
0.0486677
0.0486677
0.0488737
0.0405173
0.0450612
0.0451274
0.0450792
0.0450812
0.0451268
0.0450012
0.040602
0.0410628
0.0451545
0.0454324
0.0453021
0.0453013
0.0452987
0.0454057
0.0410408
0.0397847
0.045263
0.0456122
0.0454807
0.0454793
0.0454754
0.0455766
0.0435134
0.0405345
0.0452038
0.0458092
0.0456555
0.0456613
0.0456558
0.0457964
0.0433344
0.0411213
0.0452121
0.0459626
0.0458985
0.0459046
0.0458987
0.0459461
0.0434796
0.0416949
0.0452586
0.0461224
0.0461573
0.0461639
0.0461576
0.0461039
0.0436551
0.0422636
0.0453723
0.0462901
0.0464334
0.046445
0.0464337
0.0462706
0.0438473
0.0428237
0.0452215
0.0464638
0.0467313
0.046762
0.0467307
0.0464449
0.0440578
0.0433669
0.0446838
0.0466083
0.0470303
0.0472623
0.0470259
0.0466059
0.0442892
0.0438871
0.0445601
0.0466128
0.0473212
0.0461725
0.0472874
0.046608
0.0445411
0.0443811
0.0448118
0.046826
0.0477809
0.0503308
0.0476399
0.0468207
0.0448125
0.0448537
0.0450859
0.0469464
0.0482086
0.058349
0.048052
0.0469362
0.0451045
0.0453033
0.0453783
0.045816
0.0489785
0.0261466
0.0486618
0.0458057
0.0454065
0.0457437
0.045696
0.0456856
0.0484578
0.0481368
0.0456813
0.0457324
0.0460895
0.0460444
0.0460236
0.0460899
0.0311287
0.0460744
0.0460225
0.0460865
0.0464815
0.0464305
0.0464039
0.0464043
0.0464054
0.0464042
0.046404
0.0464788
0.0469209
0.0468621
0.0468621
0.0468618
0.0468617
0.0468619
0.0468621
0.046918
0.0474194
0.0473501
0.0473497
0.0473496
0.0473495
0.0473496
0.0473497
0.0474162
0.0479967
0.0479114
0.047911
0.047911
0.047911
0.047911
0.047911
0.0479934
0.0488737
0.0486678
0.0486677
0.0486677
0.0486677
0.0486677
0.0486677
0.0488737
0.0405665
0.0450293
0.0451198
0.0451074
0.045098
0.0451057
0.0449856
0.040552
0.0411554
0.0451354
0.0454246
0.0453816
0.0453854
0.0453815
0.0453892
0.0410002
0.0399945
0.0452764
0.0456103
0.0455657
0.0455678
0.0455655
0.045557
0.0434114
0.0405589
0.0452129
0.0458139
0.0457156
0.0457124
0.045717
0.0458028
0.0432589
0.0412127
0.0452217
0.0459603
0.0459233
0.0459149
0.0459242
0.0459523
0.0435359
0.0418102
0.0452535
0.0461207
0.0461388
0.0461312
0.0461362
0.0461124
0.043713
0.0423978
0.0453361
0.0463025
0.0463646
0.046364
0.0463664
0.0462893
0.0438969
0.0429762
0.0452131
0.0464856
0.0466188
0.0466138
0.0466228
0.0464695
0.0440886
0.0436092
0.0446952
0.0466305
0.0469824
0.0469787
0.0469824
0.0466171
0.0443058
0.0439583
0.04454
0.0466232
0.0472021
0.0472085
0.0472097
0.0466248
0.0445544
0.0445088
0.0447824
0.0467893
0.0474681
0.0474777
0.047486
0.0467849
0.0448209
0.0448489
0.0450644
0.046971
0.04763
0.0476438
0.0476294
0.0469656
0.0451148
0.0452979
0.0453744
0.0460612
0.0477885
0.0477802
0.0477846
0.0460986
0.0454086
0.0457441
0.0456939
0.0456654
0.0475058
0.0474641
0.0475032
0.0456644
0.0457321
0.0460901
0.0460448
0.0460244
0.0460275
0.0460311
0.0460267
0.0460259
0.0460871
0.046483
0.0464338
0.0464132
0.0464256
0.0464245
0.0464224
0.0464117
0.0464813
0.0469256
0.046867
0.046873
0.0468732
0.0468646
0.0468773
0.0468727
0.0469235
0.0474211
0.047358
0.047351
0.0473497
0.0473496
0.0473497
0.0473549
0.0474194
0.0479976
0.0479164
0.0479126
0.047911
0.047911
0.047911
0.0479187
0.0479961
0.048876
0.0486696
0.0486677
0.0486677
0.0486677
0.0486677
0.0486677
0.0488761
0.0401985
0.0427388
0.0428318
0.0428392
0.0428056
0.0426454
0.0425787
0.040499
0.0408382
0.0430052
0.0430523
0.0430649
0.0430535
0.0428978
0.0428497
0.0408136
0.0398008
0.0434039
0.0434011
0.0433615
0.0433256
0.0433066
0.043274
0.0430245
0.0402896
0.0434454
0.0434659
0.0434629
0.0434523
0.0434343
0.0434011
0.0430498
0.0410475
0.0435977
0.0435692
0.0435976
0.0435999
0.0435868
0.0435609
0.0432378
0.0416702
0.0437517
0.0437427
0.0437581
0.0437586
0.0437502
0.0437319
0.0434194
0.042096
0.0439248
0.0439256
0.043932
0.0439315
0.0439277
0.0439164
0.0436559
0.0426921
0.0441267
0.0441231
0.0441234
0.0441227
0.0441224
0.0441182
0.0439931
0.0432025
0.0443432
0.0443379
0.0443358
0.0443345
0.044337
0.0443375
0.0442511
0.0438085
0.0445789
0.0445751
0.0445723
0.0445709
0.0445734
0.0445745
0.0445624
0.0443473
0.0448345
0.0448308
0.0448287
0.0448277
0.0448288
0.0448304
0.0448207
0.0448853
0.0451102
0.0451075
0.0451058
0.0451053
0.0451063
0.0451081
0.0451148
0.0453566
0.0454087
0.0454065
0.0454055
0.0454049
0.0454064
0.0454067
0.0454089
0.0457289
0.0457322
0.0457312
0.045733
0.0457325
0.045733
0.0457305
0.0457325
0.0460886
0.0460919
0.0460949
0.0460986
0.0460981
0.0460979
0.0460918
0.0460895
0.0464853
0.0464899
0.0464903
0.0464933
0.0464932
0.0464925
0.0464888
0.0464854
0.0469278
0.0469313
0.046932
0.046935
0.0469353
0.0469346
0.0469305
0.0469272
0.0474271
0.0474316
0.0474343
0.0474343
0.0474349
0.047435
0.0474318
0.0474259
0.0480038
0.0480114
0.0480118
0.0480096
0.0480099
0.0480097
0.0480122
0.0480082
0.0488791
0.0488789
0.0488782
0.0488782
0.0488782
0.0488782
0.0488791
0.0488783
0.0415858
0.0418166
0.0417963
0.0423881
0.0423912
0.0418836
0.0420393
0.042107
0.042263
0.0422915
0.0423218
0.0427157
0.0427113
0.0423959
0.0425154
0.0424715
0.0424691
0.0426302
0.0426284
0.0428338
0.042831
0.0426936
0.0426194
0.0426423
0.042789
0.0428301
0.0428411
0.0430107
0.0430077
0.0428858
0.0429042
0.0428795
0.0431328
0.0432067
0.0431472
0.0431995
0.0431945
0.0431553
0.0431531
0.0431341
0.043383
0.043416
0.0434282
0.0434088
0.0433984
0.0434186
0.0434197
0.0433823
0.0436044
0.0437001
0.0437068
0.0437046
0.043687
0.0436873
0.0436887
0.0436202
0.0438511
0.0439656
0.0439801
0.0439747
0.0439572
0.0439553
0.0439607
0.0438351
0.0440996
0.0442439
0.044253
0.0442485
0.0442426
0.0442415
0.0442453
0.044086
0.0443991
0.0445241
0.0445353
0.0445383
0.0445391
0.044542
0.0445447
0.0444032
0.0448029
0.0448326
0.0448451
0.044849
0.0448488
0.0448429
0.044842
0.044787
0.0451782
0.0451532
0.0451619
0.0451656
0.0451656
0.0451622
0.0451537
0.0451681
0.0455213
0.0454648
0.0454842
0.0454839
0.0454839
0.045484
0.0454672
0.0455094
0.0458482
0.0457976
0.0458181
0.0458185
0.0458185
0.045818
0.0457998
0.0458354
0.0462151
0.0461721
0.0461873
0.0461877
0.0461877
0.0461872
0.0461746
0.0462012
0.0466141
0.0465985
0.0465987
0.0465989
0.0465989
0.0465986
0.0466011
0.0465988
0.0470782
0.0470585
0.0470616
0.0470618
0.0470618
0.0470615
0.0470615
0.0470635
0.0476024
0.047587
0.0475896
0.0475898
0.0475898
0.0475894
0.0475889
0.0475915
0.0481979
0.0481931
0.0481929
0.0481929
0.0481929
0.0481924
0.0481916
0.0481948
0.0488692
0.0488678
0.0488679
0.0488679
0.0488679
0.0488678
0.0488677
0.0488696
0.0453241
0.0450589
0.045334
0.0451912
0.045805
0.0452092
0.045928
0.0453322
0.0453426
0.0453529
0.045803
0.0457107
0.045928
0.0458607
0.0453235
0.0453535
0.0453455
0.0457155
0.0457159
0.0458634
0.0458649
0.0453238
0.0453451
0.0453376
0.0457161
0.0457159
0.0458657
0.0458638
0.0453249
0.0453421
0.0453395
0.045711
0.0458025
0.0458608
0.0459233
0.0450668
0.0453334
0.0450721
0.0458058
0.0451687
0.045921
0.0451842
0.0453389
0.0450775
0.0453518
0.0452189
0.0459678
0.0452439
0.0460859
0.045361
0.0453655
0.0453798
0.0459687
0.0459145
0.0460883
0.0460807
0.0453548
0.0453842
0.0453809
0.0459153
0.0459168
0.0460771
0.046075
0.0453445
0.0453787
0.0453685
0.0459177
0.0459155
0.0460756
0.0460727
0.0453468
0.0453728
0.0453676
0.0459137
0.0459637
0.0460741
0.0460826
0.0450792
0.0453574
0.0450963
0.0459602
0.0451932
0.0460771
0.0452272
0.0453608
0.045118
0.0454023
0.0452798
0.0461275
0.0453341
0.0462505
0.045389
0.0454182
0.0454256
0.0461305
0.0461371
0.0462594
0.046306
0.0453932
0.0454326
0.045434
0.0461335
0.0461304
0.0463002
0.0462995
0.0453827
0.0454371
0.0454375
0.0461309
0.0461278
0.0462999
0.0462987
0.0453788
0.0454352
0.0454216
0.0461298
0.0461247
0.0463013
0.046255
0.0451038
0.0454123
0.045133
0.0461185
0.0452433
0.0462419
0.0452986
0.0454166
0.0451125
0.0453515
0.0453521
0.0462974
0.0452987
0.0464286
0.0454363
0.045365
0.0453561
0.0463057
0.0463622
0.0464438
0.0465443
0.0454417
0.0453547
0.0453377
0.0463584
0.0463586
0.0465426
0.0465403
0.0454513
0.0453502
0.0453632
0.0463591
0.046359
0.0465409
0.046543
0.0454339
0.0453702
0.0453574
0.0463618
0.0463005
0.0465451
0.0464333
0.0451457
0.0453558
0.0451192
0.0462841
0.045334
0.0464085
0.0452852
0.0452728
0.0447933
0.0448624
0.0452259
0.0464744
0.0448479
0.046596
0.0452722
0.0448656
0.0448499
0.04649
0.0466079
0.046615
0.0468004
0.0452444
0.0448407
0.0448115
0.0466067
0.046604
0.0468006
0.0467986
0.0452728
0.0448243
0.0448371
0.0466045
0.0466071
0.046799
0.0468004
0.0452745
0.0448548
0.044856
0.0466088
0.046478
0.0468023
0.0466052
0.045072
0.0448634
0.0447986
0.0464529
0.0452161
0.0465869
0.0448346
0.0447264
0.0445533
0.0445154
0.0447249
0.0466252
0.0445351
0.0466147
0.0447113
0.0445129
0.0444932
0.0466289
0.0469765
0.0466128
0.0471669
0.044677
0.0444903
0.0444805
0.046977
0.0469726
0.0471717
0.0471703
0.0446985
0.0444829
0.0444886
0.0469726
0.0469785
0.0471703
0.0471719
0.0447197
0.044496
0.0445116
0.0469786
0.0466145
0.0471701
0.0466275
0.0447045
0.0445167
0.0445651
0.0466127
0.0447105
0.0466285
0.0445255
0.0445273
0.0447388
0.0447002
0.0445493
0.0466195
0.0447121
0.0467314
0.0445041
0.0446962
0.0446731
0.0466185
0.047198
0.0467331
0.0474219
0.0444966
0.0446723
0.0446696
0.0472036
0.047204
0.0474321
0.0474495
0.0445018
0.0446684
0.0446723
0.0472039
0.0472038
0.047449
0.0474318
0.044525
0.0446759
0.0446962
0.0472016
0.0466345
0.0474254
0.0467399
0.0445749
0.0446981
0.0447392
0.0466348
0.0445426
0.046737
0.0447107
0.0447716
0.0450106
0.0449847
0.04478
0.0467725
0.0449867
0.0469706
0.0447459
0.0449868
0.0449752
0.0467722
0.0474561
0.0469745
0.0476456
0.0447416
0.0449716
0.0449664
0.0474664
0.0474856
0.0476437
0.0476821
0.0447446
0.0449654
0.0449742
0.0474851
0.0474661
0.0476818
0.0476418
0.0447719
0.0449795
0.0449867
0.0474593
0.046777
0.0476435
0.0469844
0.0448074
0.0449841
0.0450103
0.0467752
0.0447793
0.0469754
0.0449867
0.0450559
0.0452972
0.0452882
0.0450654
0.0469669
0.0452983
0.0462844
0.0450545
0.0452866
0.0452877
0.0469666
0.0476386
0.0462888
0.0478036
0.045048
0.0452866
0.0452832
0.0476437
0.047679
0.047813
0.0478677
0.0450543
0.0452827
0.0452858
0.0476731
0.0476419
0.0478681
0.0478105
0.0450579
0.0452872
0.0452865
0.0476365
0.046977
0.0478011
0.046315
0.0450797
0.0452882
0.0452968
0.0469724
0.0450656
0.0463119
0.0452988
0.0453724
0.0456104
0.0456093
0.0453742
0.0460838
0.0456112
0.0456177
0.0453675
0.0456091
0.0456082
0.0460899
0.0478045
0.0456147
0.0475859
0.0453641
0.0456079
0.0456073
0.0478146
0.0478628
0.0475966
0.0476394
0.0453656
0.0456074
0.0456071
0.0478633
0.0478117
0.0476411
0.0475954
0.0453721
0.0456077
0.0456093
0.0478021
0.0461153
0.0475892
0.0456081
0.0453731
0.0456096
0.0456099
0.0461135
0.0453747
0.0456169
0.0456117
0.0456919
0.0459555
0.0459561
0.0456936
0.0456644
0.0459538
0.0459778
0.0456916
0.0459565
0.045958
0.0456607
0.0474922
0.0459785
0.046003
0.0456911
0.0459592
0.0459617
0.0475026
0.047533
0.0460036
0.0460223
0.0456908
0.0459618
0.0459611
0.0475352
0.0475009
0.0460223
0.0460039
0.0456919
0.045961
0.0459575
0.0474958
0.0456558
0.0460031
0.0459791
0.045693
0.0459567
0.0459551
0.0456631
0.0456942
0.0459785
0.0459551
0.0460479
0.046336
0.0463404
0.0460444
0.0460251
0.0463322
0.0463602
0.0460518
0.0463416
0.0463435
0.046025
0.0460266
0.0463608
0.0463713
0.0460563
0.0463444
0.046344
0.0460276
0.046043
0.0463717
0.0463748
0.0460558
0.0463446
0.0463433
0.046043
0.0460282
0.0463746
0.0463725
0.0460506
0.0463428
0.0463419
0.0460274
0.0460261
0.0463716
0.0463608
0.0460461
0.0463404
0.0463352
0.0460243
0.0460456
0.0463601
0.0463325
0.0464414
0.0467579
0.0467614
0.0464337
0.0464102
0.0467493
0.0467859
0.0464453
0.046764
0.0467676
0.0464096
0.0464217
0.0467896
0.0467958
0.0464456
0.0467684
0.0467672
0.0464219
0.0464247
0.0467958
0.0467791
0.046445
0.0467673
0.0467673
0.0464247
0.0464228
0.0467791
0.0467965
0.0464426
0.0467665
0.0467634
0.046422
0.0464122
0.0467955
0.0467857
0.0464353
0.0467613
0.0467547
0.0464109
0.0464337
0.0467858
0.0467499
0.0468759
0.0472375
0.0472387
0.0468644
0.0468758
0.0472287
0.0472369
0.0468813
0.0472404
0.047243
0.0468769
0.0468813
0.0472381
0.0472232
0.0468813
0.0472411
0.0472382
0.046877
0.0468663
0.0472216
0.0472215
0.0468803
0.047238
0.0472397
0.0468663
0.0468772
0.0472215
0.0472216
0.0468767
0.0472401
0.0472382
0.0468783
0.0468736
0.0472231
0.0472346
0.0468689
0.0472375
0.0472339
0.0468725
0.0468657
0.0472323
0.0472288
0.0473675
0.0477802
0.0477776
0.0473551
0.0473651
0.047772
0.0477635
0.0473693
0.0477744
0.0477629
0.0473632
0.0473497
0.0477623
0.0477622
0.0473607
0.0477629
0.0477629
0.0473496
0.0473496
0.0477622
0.0477622
0.0473626
0.0477629
0.0477629
0.0473496
0.0473496
0.0477622
0.0477622
0.0473655
0.0477629
0.0477748
0.0473497
0.0473617
0.0477622
0.0477623
0.047363
0.0477787
0.0477782
0.0473622
0.0473543
0.0477634
0.0477703
0.0479223
0.0483245
0.0483227
0.0479166
0.0479109
0.0483219
0.0483218
0.0479116
0.0483219
0.0483219
0.047911
0.047911
0.0483218
0.0483218
0.0479116
0.0483219
0.0483219
0.047911
0.047911
0.0483218
0.0483218
0.0479116
0.0483219
0.0483219
0.047911
0.047911
0.0483218
0.0483218
0.047917
0.0483219
0.0483219
0.047911
0.047911
0.0483218
0.0483218
0.0479251
0.0483235
0.0483247
0.0479108
0.0479157
0.0483219
0.048322
0.0458091
0.0452451
0.0459385
0.0452052
0.0457955
0.0452096
0.0459053
0.0456576
0.0459439
0.0458348
0.0458128
0.0456574
0.0459241
0.0458316
0.0456593
0.0458413
0.0458383
0.0456563
0.0456552
0.045832
0.0458374
0.0456514
0.045838
0.045824
0.0456555
0.0456523
0.0458375
0.0458321
0.045809
0.0458181
0.0459378
0.0456524
0.0458091
0.0458321
0.0459229
0.0451835
0.0459289
0.0452099
0.0457955
0.0452037
0.0459063
0.045208
0.0459802
0.0452792
0.0461006
0.0452139
0.0459443
0.0452394
0.0460617
0.045899
0.0461134
0.0461002
0.045962
0.0458949
0.0460807
0.0460873
0.0459009
0.0460921
0.0460897
0.0458951
0.0459008
0.0460874
0.0460942
0.0458865
0.0460905
0.0460837
0.0459009
0.0458951
0.0460943
0.0460873
0.0459813
0.0460869
0.0461059
0.0458951
0.0459625
0.0460873
0.046081
0.045219
0.0460909
0.0452414
0.0459452
0.0452122
0.0460625
0.0452376
0.0461419
0.0453503
0.0462648
0.0452594
0.046103
0.0453465
0.0462265
0.0461687
0.0462784
0.0463788
0.0461222
0.0461537
0.0462464
0.0463585
0.0461558
0.0463693
0.0463619
0.0461539
0.0461614
0.0463589
0.04637
0.0461533
0.0463627
0.04637
0.0461614
0.0461538
0.04637
0.0463588
0.0461474
0.0463791
0.0462697
0.0461537
0.0461223
0.0463585
0.0462463
0.0452551
0.0462548
0.0453098
0.0461036
0.0452575
0.046227
0.0453444
0.0463078
0.0453069
0.0464364
0.0453729
0.0462698
0.045311
0.0464023
0.0464482
0.0464503
0.0466708
0.0462897
0.0464298
0.0464186
0.0466501
0.0464344
0.0466683
0.0466598
0.0464303
0.0464434
0.0466518
0.0466792
0.0464456
0.0466605
0.0466759
0.0464435
0.0464302
0.0466794
0.0466516
0.046312
0.0466813
0.0464374
0.0464298
0.0462896
0.0466501
0.0464184
0.0453591
0.0464251
0.045297
0.0462702
0.0453708
0.0464025
0.0453087
0.0464811
0.0448254
0.046604
0.0452248
0.0464477
0.04481
0.0465784
0.046748
0.0466172
0.0469842
0.0464648
0.0467271
0.0465942
0.0469646
0.0467387
0.0469847
0.0469805
0.0467296
0.0467679
0.0469718
0.0471212
0.0467551
0.0469808
0.0469958
0.0467681
0.0467293
0.0471216
0.0469714
0.0464811
0.0469959
0.0466105
0.0467271
0.0464646
0.0469644
0.0465939
0.0452202
0.0466039
0.0448184
0.0464479
0.0452225
0.0465786
0.0448078
0.0466313
0.0445128
0.0466119
0.0446865
0.0466053
0.0445332
0.0466043
0.0470413
0.0466108
0.047248
0.0466075
0.0470267
0.0466088
0.0472528
0.0470375
0.0472492
0.0472506
0.047031
0.0473157
0.047279
0.0466977
0.047049
0.0472515
0.0472553
0.0473159
0.0470305
0.046685
0.0472789
0.0466167
0.0472569
0.0466307
0.0470265
0.046607
0.0472525
0.0466083
0.0446918
0.0466299
0.0445132
0.0466053
0.0446844
0.0466043
0.0445317
0.046613
0.0447046
0.0467327
0.0445601
0.0466081
0.0447423
0.0467733
0.0472788
0.0467316
0.0474964
0.0466127
0.0472903
0.0467784
0.0475979
0.0472853
0.0475085
0.0475487
0.0473225
0.0458675
0.0477115
0.0509871
0.047287
0.0475491
0.0475143
0.0458562
0.0473226
0.0510837
0.0477128
0.0466361
0.047505
0.0467391
0.04729
0.0466123
0.0475982
0.046778
0.0445325
0.0467399
0.0447051
0.0466081
0.0445588
0.0467736
0.0447418
0.0467763
0.0449821
0.0469666
0.0448116
0.0468196
0.0450166
0.0469584
0.0475301
0.0469803
0.0476673
0.0468248
0.0476486
0.0469678
0.0480622
0.047588
0.0476725
0.0477364
0.0477792
0.0539657
0.0482173
0.0680027
0.0475487
0.0477373
0.0476723
0.0540788
0.0477807
0.0682907
0.0482176
0.0467771
0.0476685
0.0469759
0.047649
0.0468244
0.0480623
0.0469671
0.0447743
0.046961
0.0449816
0.0468199
0.0448114
0.046959
0.0450166
0.0469562
0.0453017
0.0461821
0.045086
0.0469368
0.0453031
0.0459863
0.0476685
0.0462339
0.0478332
0.0469469
0.0480877
0.0459987
0.0487069
0.0477389
0.0478382
0.047938
0.0482512
0.065102
0.0490311
0.0231071
0.0476731
0.0479394
0.0478361
0.0658354
0.0482514
0.0231935
0.0490253
0.0469645
0.0478321
0.0462046
0.0480877
0.0469463
0.0487033
0.0459983
0.0450525
0.0461494
0.0453018
0.0469375
0.045086
0.0459869
0.045303
0.0459833
0.0456121
0.0456213
0.0453784
0.0458083
0.045614
0.0456368
0.0478336
0.0456123
0.047632
0.0458191
0.0487324
0.0456415
0.0483064
0.0479329
0.0476343
0.0476966
0.0490695
0.0219622
0.048653
0.0159698
0.0478364
0.0477026
0.0476279
0.0220327
0.0490636
0.01562
0.0486643
0.0460035
0.047636
0.0456
0.0487289
0.0458189
0.0483145
0.0456416
0.0453748
0.0456232
0.0456121
0.0458088
0.0453784
0.0456368
0.045614
0.0456679
0.0459547
0.0459773
0.0456961
0.0456818
0.0459541
0.0459781
0.0475264
0.0459777
0.046005
0.0456864
0.0481596
0.0459796
0.0460707
0.0475869
0.0460062
0.0460292
0.0484989
0.0175824
0.0460928
0.0281419
0.0475282
0.0460294
0.0460067
0.0173716
0.0485102
0.0281434
0.0460928
0.0456516
0.0460057
0.0459794
0.0481672
0.0456865
0.0460707
0.0459796
0.0456946
0.0459793
0.0459555
0.0456819
0.0456961
0.0459781
0.0459541
0.046023
0.0463315
0.0463596
0.0460444
0.0460226
0.0463301
0.0463538
0.0460282
0.0463594
0.0463717
0.0460237
0.0460755
0.0463538
0.0463547
0.0460483
0.0463717
0.0463741
0.0460919
0.0370549
0.046355
0.0463574
0.0460304
0.046374
0.0463726
0.0370352
0.0460918
0.0463574
0.046355
0.046025
0.0463708
0.0463611
0.0460755
0.0460238
0.0463547
0.0463538
0.0460461
0.0463608
0.0463329
0.0460226
0.0460444
0.0463538
0.0463301
0.0464079
0.0467495
0.0467846
0.0464305
0.0464039
0.0467495
0.0467762
0.046422
0.0467869
0.0467924
0.0464039
0.0464042
0.0467762
0.0467759
0.046424
0.046789
0.0467764
0.0464044
0.0464055
0.0467759
0.0467757
0.0464229
0.0467764
0.046792
0.0464055
0.0464044
0.0467757
0.0467759
0.0464126
0.046793
0.0467859
0.0464042
0.0464039
0.0467759
0.0467762
0.0464341
0.0467863
0.0467494
0.0464039
0.0464305
0.0467762
0.0467495
0.0468688
0.0472231
0.0472274
0.0468621
0.0468621
0.0472221
0.0472216
0.0468723
0.0472289
0.0472216
0.0468621
0.0468619
0.0472216
0.0472215
0.0468619
0.0472215
0.0472215
0.0468618
0.0468617
0.0472215
0.0472214
0.046868
0.0472215
0.0472215
0.0468617
0.0468618
0.0472214
0.0472215
0.0468722
0.0472216
0.0472284
0.0468619
0.0468621
0.0472215
0.0472216
0.046863
0.0472269
0.0472243
0.0468621
0.0468621
0.0472216
0.0472221
0.047357
0.0477664
0.0477622
0.0473501
0.0473497
0.0477627
0.0477622
0.0473496
0.0477622
0.0477622
0.0473496
0.0473496
0.0477622
0.0477622
0.0473496
0.0477622
0.0477622
0.0473496
0.0473495
0.0477622
0.0477622
0.0473496
0.0477622
0.0477622
0.0473495
0.0473496
0.0477622
0.0477622
0.0473549
0.0477622
0.0477622
0.0473496
0.0473497
0.0477622
0.0477622
0.047351
0.0477623
0.0477645
0.0473497
0.0473501
0.0477622
0.0477627
0.047911
0.0483219
0.0483218
0.0479114
0.047911
0.0483219
0.0483218
0.047911
0.0483218
0.0483218
0.047911
0.047911
0.0483218
0.0483218
0.047911
0.0483218
0.0483218
0.047911
0.047911
0.0483218
0.0483218
0.047911
0.0483218
0.0483218
0.047911
0.047911
0.0483218
0.0483218
0.047911
0.0483218
0.0483218
0.047911
0.047911
0.0483218
0.0483218
0.0479116
0.0483218
0.0483219
0.047911
0.0479114
0.0483218
0.0483219
0.0457965
0.0452104
0.0459075
0.0452267
0.0458079
0.0452327
0.0459238
0.0456555
0.0459248
0.0458356
0.0458177
0.0456576
0.0459389
0.0458399
0.0456598
0.0458363
0.04584
0.0456553
0.0456626
0.045838
0.045842
0.0456561
0.0458423
0.0458361
0.0456609
0.0456532
0.0458389
0.0458361
0.0458095
0.0458364
0.0459237
0.0456513
0.045814
0.0458394
0.0459359
0.0452099
0.045909
0.0452136
0.0458014
0.0452268
0.0459227
0.0452414
0.0459465
0.0452401
0.0460633
0.0452361
0.0459636
0.0452486
0.0460814
0.0458986
0.0460827
0.0460908
0.0459789
0.0459047
0.0460909
0.046093
0.045903
0.0460917
0.0460953
0.0459042
0.0459047
0.0460993
0.0460939
0.0458992
0.046098
0.0460913
0.0459015
0.0459001
0.0460932
0.0460953
0.0459633
0.046092
0.0460816
0.045906
0.0459768
0.0460992
0.04609
0.0452176
0.0460648
0.0452424
0.0459629
0.0452479
0.0460821
0.045268
0.0461043
0.0453481
0.0462277
0.0452596
0.0461227
0.0453099
0.0462408
0.0461573
0.0462486
0.0463621
0.0461313
0.0461583
0.0462548
0.0463614
0.0461624
0.0463631
0.0463712
0.0461666
0.0461622
0.0463746
0.0463702
0.0461577
0.0463728
0.0463624
0.0461621
0.0461625
0.0463714
0.0463718
0.046123
0.0463635
0.0462472
0.0461655
0.0461302
0.0463697
0.0462529
0.0452621
0.0462293
0.0453488
0.046123
0.0452805
0.0462414
0.0453324
0.046271
0.0453165
0.0464006
0.0453267
0.0462863
0.0452717
0.0464141
0.0464334
0.0464212
0.0466537
0.0463026
0.046437
0.0464385
0.0466661
0.0464447
0.0466551
0.0466773
0.0464485
0.0464442
0.0466785
0.0466715
0.0464338
0.0466775
0.0466546
0.0464456
0.0464445
0.0466724
0.0466702
0.0462905
0.046655
0.0464197
0.0464421
0.0463004
0.046659
0.0464344
0.0453751
0.0464019
0.0453129
0.0462857
0.045349
0.0464125
0.0452886
0.0464456
0.0448152
0.0465768
0.0451992
0.0464602
0.0448262
0.0465967
0.0467306
0.046594
0.0469675
0.046484
0.0467468
0.04662
0.0469876
0.0467624
0.0469713
0.0470698
0.0467579
0.0467498
0.0469952
0.046986
0.0467319
0.0470692
0.0469715
0.0467503
0.046749
0.0469857
0.0469872
0.0464643
0.046968
0.0465936
0.0467366
0.0464835
0.0469766
0.0466161
0.0452265
0.046577
0.0448109
0.0464608
0.0452127
0.0465907
0.0448286
0.0466064
0.0445341
0.046605
0.0447037
0.0466232
0.0445173
0.0466229
0.0470266
0.0466108
0.0472511
0.0466307
0.0470552
0.0466378
0.047263
0.0472617
0.0472779
0.0468894
0.0470543
0.0470397
0.0472625
0.0472459
0.0470299
0.0469024
0.0472772
0.0470396
0.0470442
0.0472466
0.0472577
0.0466085
0.0472512
0.0466093
0.0470402
0.046627
0.0472651
0.0466422
0.0446871
0.0466062
0.0445332
0.0466148
0.0447039
0.0466274
0.0445172
0.0466087
0.0447424
0.046774
0.0445331
0.0466254
0.0447003
0.0467429
0.0472883
0.0467793
0.0475914
0.0466417
0.0472942
0.046745
0.0475124
0.0462092
0.0477131
0.0477277
0.0472941
0.0472783
0.0475227
0.0475112
0.0473212
0.0476847
0.0477127
0.0472789
0.047289
0.0475115
0.0475193
0.0466131
0.0475908
0.0467788
0.0472972
0.0466414
0.0475231
0.0467463
0.04456
0.0467742
0.0447422
0.0466266
0.0445331
0.0467407
0.044701
0.0468202
0.0450166
0.0469594
0.04477
0.0467832
0.0449827
0.0469606
0.047641
0.0469709
0.0480291
0.0467828
0.0475452
0.0469824
0.0476741
0.0501659
0.0481767
0.0631616
0.0475581
0.047545
0.0476772
0.0476616
0.0477799
0.0643957
0.0481752
0.0475453
0.0475552
0.0476622