/*--------------------------------*- C++ -*----------------------------------*\
| =========                 |                                                 |
| \\      /  F ield         | OpenFOAM: The Open Source CFD Toolbox           |
|  \\    /   O peration     | Version:  2206                                  |
|   \\  /    A nd           | Website:  www.openfoam.com                      |
|    \\/     M anipulation  |                                                 |
\*---------------------------------------------------------------------------*/
FoamFile
{
    version     2.0;
    format      ascii;
    arch        "LSB;label=32;scalar=64";
    class       volScalarField;
    location    "200";
    object      omega;
}
// * * * * * * * * * * * * * * * * * * * * * * * * * * * * * * * * * * * * * //

dimensions      [0 0 -1 0 0 0 0];

internalField   nonuniform List<scalar> 
187974
(
7.6577
7.43791
7.39502
7.37257
7.37307
7.3978
7.42991
7.69356
8.03203
7.79841
7.76479
7.74122
7.74183
7.76726
7.78845
8.07377
8.25903
8.03216
8.00947
7.98715
7.98783
8.01084
8.02026
8.30336
8.51316
8.28594
8.30195
8.28875
8.28933
8.29773
8.2679
8.56186
8.84805
8.58872
8.60661
8.6264
8.62705
8.6056
8.56972
8.90097
9.23024
8.94632
8.95364
9.00513
9.00602
8.95733
8.93141
9.28619
9.65547
9.35428
9.37242
9.41765
9.41849
9.37539
9.3355
9.70922
10.1379
9.8186
9.84623
9.87094
9.87183
9.8492
9.79646
10.1976
10.6675
10.3684
10.3891
10.39
10.3907
10.3911
10.3397
10.7418
11.2522
10.9752
10.9955
11.0023
11.0022
10.9987
10.9401
11.3199
11.9085
11.6743
11.713
11.7214
11.7213
11.7142
11.6547
12.0273
12.6137
12.5028
12.5354
12.5477
12.5472
12.5344
12.4633
12.7235
13.5111
13.4559
13.4978
13.4994
13.4989
13.4993
13.4154
13.6434
14.7232
14.6408
14.6351
14.639
14.6396
14.6381
14.5978
14.8645
16.1309
16.044
16.0522
16.0551
16.0559
16.0549
16.0086
16.2558
17.8396
17.7501
17.7544
17.7557
17.7559
17.7554
17.7594
17.8334
19.8508
19.8649
19.8657
19.8651
19.865
19.8655
19.8676
19.8909
22.556
22.542
22.5443
22.5451
22.5451
22.5443
22.5421
22.5501
26.0384
26.0252
26.0263
26.0266
26.0266
26.0263
26.0249
26.04
30.6117
30.6009
30.6013
30.6017
30.6017
30.6013
30.6007
30.6119
7.82033
6.57237
6.61873
6.64144
6.64135
6.61571
6.57025
7.828
8.25366
7.01879
7.05998
7.08162
7.0814
7.0568
7.0166
8.27703
9.75003
6.97685
7.05324
7.11897
7.12573
7.09463
7.01347
6.81186
10.2367
7.42514
7.44649
7.50454
7.51099
7.48012
7.43538
7.45029
10.4287
7.91382
7.87123
7.89083
7.89741
7.88047
7.94665
7.89757
10.6115
8.36831
8.40913
8.31457
8.30859
8.36076
8.40066
8.33473
10.8417
8.86256
8.89537
8.7725
8.75765
8.83444
8.8903
8.81973
11.1564
9.41566
9.42724
9.32373
9.31478
9.36861
9.43551
9.36354
11.5122
10.0051
9.99633
9.95098
9.95094
9.94825
10.0112
9.93352
11.9531
10.6372
10.6627
10.6608
10.659
10.6577
10.6532
10.5805
12.4163
11.4017
11.3958
11.3975
11.3978
11.3957
11.3969
11.3772
12.9086
12.2369
12.2231
12.2248
12.2258
12.2228
12.2387
12.2005
13.5325
13.2011
13.1852
13.186
13.1862
13.1844
13.2001
13.167
14.3003
14.3227
14.3262
14.3299
14.3308
14.3302
14.3235
14.283
15.6597
15.6636
15.6728
15.6852
15.6907
15.689
15.6793
15.6197
17.2635
17.2779
17.2939
17.2988
17.299
17.2975
17.2924
17.2343
19.2399
19.2598
19.2728
19.2746
19.2741
19.273
19.2674
19.2136
21.7336
21.7539
21.7624
21.7655
21.7652
21.7635
21.758
21.7426
24.9734
24.9822
24.9756
24.9763
24.9765
24.9746
24.9902
24.9659
30.6536
30.6405
30.6334
30.6336
30.6336
30.6335
30.6436
30.65
8.25588
9.5333
9.98007
9.9833
9.98189
9.97736
9.53198
8.26373
8.70579
9.42564
9.56596
9.5706
9.56166
9.56933
9.60889
8.71893
10.7193
9.72449
9.93616
9.95263
9.9449
9.94752
9.91131
6.99614
10.6417
9.58681
9.87634
9.87325
9.85823
9.87282
9.86711
7.52802
10.8029
9.61051
9.87468
9.86664
9.85459
9.87196
9.86855
7.88107
11.0126
9.64477
9.86455
9.8472
9.8372
9.85972
9.86188
8.2441
11.2677
9.68569
9.82934
9.80032
9.78741
9.81551
9.82879
8.66333
11.4571
9.74747
9.7895
9.75407
9.73967
9.76521
9.79398
9.32609
11.7912
10.0013
9.98251
9.94552
9.93614
9.95104
9.99231
10.0339
12.1027
10.6139
10.5404
10.5012
10.4944
10.5043
10.5499
10.6869
12.3017
11.3184
11.2793
11.2371
11.2301
11.2393
11.2864
11.4158
12.8474
12.1312
12.1103
12.1012
12.0921
12.0994
12.1102
12.2454
13.4701
13.0774
13.0734
13.0551
13.0513
13.0555
13.0757
13.2046
14.3075
14.1778
14.1707
14.1682
14.1654
14.1671
14.173
14.3267
15.6591
15.4886
15.4963
15.5154
15.5247
15.5221
15.4983
15.6607
17.264
17.0623
17.0901
17.106
17.1049
17.0983
17.0846
17.2657
19.2394
18.9957
19.0234
19.0422
19.0399
19.0321
19.011
19.2363
21.7515
21.4268
21.4426
21.4162
21.3986
21.4249
21.4253
21.7415
24.974
24.5211
24.4649
24.4352
24.4352
24.435
24.5049
24.9475
30.633
29.2207
29.2201
29.2201
29.2201
29.2201
29.2195
30.6327
8.26578
9.94228
10.8314
10.8582
10.8539
10.8308
9.94665
8.25347
8.69028
9.57222
11.6157
11.7006
11.6877
11.6915
11.6054
8.70166
10.511
9.93299
12.2246
12.38
12.3672
12.3667
12.0623
7.05641
10.4572
9.865
12.6478
13.0427
13.0189
13.0304
12.6403
7.58802
10.6179
9.85182
13.1674
13.8519
13.8246
13.8587
13.1369
7.9632
10.8183
9.84227
13.713
14.7799
14.7411
14.8
13.6715
8.36772
11.0485
9.80887
14.2883
15.8074
15.7917
15.8657
14.2518
8.91296
11.3028
9.78104
14.9174
17.017
17.0033
17.0778
14.883
9.42619
11.5881
9.9966
15.4668
18.3103
18.2859
18.3333
15.5235
10.0076
11.9309
10.5626
15.4579
19.3545
19.3242
19.3806
15.5029
10.6614
12.3472
11.2916
15.3594
20.5145
20.4526
20.548
15.3313
11.4005
12.8781
12.1224
14.29
21.192
21.0588
21.199
14.2166
12.2466
13.5124
13.0828
13.2135
20.4996
20.4045
20.5025
13.201
13.2082
14.3104
14.1802
14.0946
15.9908
15.8956
15.9951
14.1056
14.3276
15.6593
15.4845
15.3968
15.3894
15.4145
15.3913
15.402
15.6592
17.2607
17.049
16.934
17.0014
17.0089
16.9989
16.9616
17.2586
19.23
18.956
18.9825
18.9752
18.9487
19.0051
18.9987
19.2195
21.7015
21.3449
21.3722
21.3426
21.3425
21.3427
21.3777
21.6984
24.9191
24.4415
24.4328
24.4327
24.4326
24.4327
24.4328
24.9081
30.6253
29.2201
29.22
29.22
29.22
29.22
29.22
30.6253
8.23372
9.96735
10.8239
10.8565
10.8546
10.8247
9.88601
8.30817
8.65753
9.55462
11.5763
11.6469
11.657
11.6551
11.5939
8.65044
10.5445
9.9125
12.1791
12.3514
12.3552
12.3399
12.0452
7.19818
10.4716
9.82655
12.5621
12.997
13.0133
13.0006
12.5577
7.71924
10.6138
9.84079
13.0516
13.7962
13.8136
13.8011
13.0427
8.089
10.7925
9.85358
13.5831
14.6981
14.7172
14.705
13.5711
8.48927
11.0125
9.83068
14.1608
15.7266
15.7476
15.7353
14.1463
8.93617
11.2776
9.80617
14.7869
16.9131
16.9339
16.9213
14.7707
9.43858
11.5871
10.0386
15.3732
18.1793
18.1686
18.1801
15.3704
10.0058
11.9462
10.6122
15.3664
19.2567
22.1082
19.2448
15.3623
10.6497
12.3635
11.3314
15.1653
20.5424
40.4925
20.4896
15.1595
11.3868
12.8621
12.1473
14.0184
21.4378
63.9632
21.3783
14.0105
12.2367
13.4658
13.0877
13.1405
20.965
110.706
20.8178
13.1391
13.2029
14.3082
14.1831
14.1128
16.0527
15.939
14.1119
14.3272
15.6568
15.4791
15.3873
15.3491
15.5888
15.3468
15.3879
15.654
17.2583
17.0389
16.9275
16.9229
16.9201
16.9235
16.9282
17.2532
19.2249
18.95
18.9497
18.9483
18.9477
18.9487
18.9501
19.2183
21.6995
21.344
21.3428
21.3424
21.3422
21.3425
21.343
21.6908
24.9166
24.4338
24.4327
24.4326
24.4325
24.4326
24.4328
24.9056
30.6253
29.2201
29.22
29.22
29.22
29.22
29.22
30.6253
8.25451
9.59248
10.0656
10.0652
10.0334
10.0015
9.49624
8.3034
8.71261
9.65831
11.631
11.6807
11.6723
11.687
11.6181
8.63371
10.694
10.0079
12.1197
12.1817
12.1661
12.1871
12.0144
7.14394
10.4558
9.8385
12.6382
12.9034
12.8898
12.9063
12.6786
7.69122
10.6696
9.83688
13.1246
13.601
13.5783
13.5934
13.1814
8.11688
10.8868
9.83532
13.6844
14.3779
14.3588
14.3705
13.7197
8.5204
11.1414
9.8082
14.2759
15.2435
15.2655
15.2588
14.3112
8.96398
11.4458
9.78315
14.908
16.2752
16.2886
16.2932
14.9242
9.46714
11.9061
9.99827
15.4666
18.4219
18.4204
18.4016
15.5429
10.0223
12.0643
10.564
15.4732
19.3463
19.3676
19.3352
15.5299
10.663
12.5909
11.2926
15.351
20.5266
20.5295
20.6213
15.4094
11.393
12.8831
12.1228
14.3259
21.1379
21.0904
21.2253
14.4195
12.2512
13.463
13.0812
13.1876
20.4969
20.3439
20.4944
13.2832
13.2051
14.3101
14.1785
14.1019
16.0311
15.8484
16.0123
14.1009
14.3261
15.6612
15.4819
15.4019
15.4003
15.396
15.3972
15.4093
15.6561
17.2664
17.0532
16.9675
17.0198
17.0133
17.0057
16.9624
17.2639
19.2491
18.9728
19.0007
19.0018
18.9615
19.0208
19
19.244
21.7104
21.3855
21.3498
21.3429
21.3428
21.3429
21.3709
21.7076
24.9239
24.4626
24.4423
24.4327
24.4327
24.4327
24.4793
24.921
30.6432
29.2329
29.22
29.22
29.22
29.22
29.2193
30.6437
8.17383
6.67881
6.73872
6.74246
6.72154
6.60955
6.5579
7.58563
8.58193
7.13236
7.16603
7.17048
7.16295
7.04295
6.99969
8.19314
10.6296
7.57264
7.55402
7.49786
7.45854
7.45509
7.44911
7.01338
10.3899
7.80385
7.81105
7.78567
7.77007
7.76557
7.75505
7.55124
10.6898
8.15582
8.12149
8.12894
8.12712
8.12563
8.11788
7.92163
10.9371
8.54007
8.52802
8.52872
8.52677
8.52757
8.52255
8.31249
11.0265
8.98015
8.97685
8.97517
8.97326
8.97623
8.9731
8.7866
11.2512
9.48343
9.47781
9.47466
9.4735
9.47794
9.4769
9.37232
11.449
10.0486
10.0411
10.0381
10.0362
10.0417
10.0416
9.96554
11.8366
10.6837
10.6772
10.6749
10.673
10.6775
10.6771
10.6621
12.2438
11.4081
11.4008
11.3976
11.3958
11.3986
11.4009
11.3922
12.7579
12.2403
12.2325
12.2282
12.2267
12.2308
12.2362
12.249
13.3151
13.2037
13.1967
13.1931
13.1907
13.1965
13.1976
13.2024
14.3282
14.3251
14.322
14.328
14.3261
14.3282
14.3197
14.3242
15.66
15.6729
15.6856
15.7
15.6982
15.6975
15.6736
15.6613
17.2773
17.2982
17.3007
17.3139
17.3134
17.3103
17.2946
17.2763
19.2604
19.2776
19.2825
19.2969
19.2979
19.2952
19.2756
19.2557
21.7429
21.7676
21.784
21.7841
21.7872
21.788
21.771
21.7351
24.9611
25.0089
25.0137
25.0011
25.0029
25.0014
25.0155
24.9858
30.667
30.6649
30.6592
30.6594
30.6594
30.6589
30.6661
30.6603
7.52281
7.31221
7.27189
7.01913
7.01703
7.3796
7.37017
7.70136
7.8183
7.68717
7.66098
7.46189
7.45793
7.72893
7.7325
8.05929
8.12466
8.00127
7.90307
7.78468
7.78061
7.96442
8.03688
8.26825
8.4827
8.22346
8.28118
8.17163
8.1666
8.322
8.29203
8.56768
8.92952
8.64712
8.62702
8.57958
8.57213
8.62777
8.59012
8.91899
9.32867
8.94449
8.9993
9.00565
8.9917
8.97981
8.94106
9.30555
9.70145
9.36061
9.41386
9.40847
9.38506
9.38279
9.34129
9.72357
10.184
9.80772
9.87449
9.87214
9.84747
9.83642
9.79695
10.1601
10.7053
10.3302
10.3938
10.3909
10.3814
10.3741
10.3287
10.6851
11.3134
10.9221
10.9921
11.0011
11.0024
11.0023
10.9522
11.3184
11.9466
11.6388
11.7076
11.7175
11.7172
11.704
11.6559
11.9161
12.7166
12.4742
12.5193
12.5282
12.5284
12.5198
12.4764
12.6942
13.5953
13.4154
13.4587
13.458
13.458
13.4583
13.4215
13.5655
14.815
14.5981
14.6437
14.6451
14.6453
14.6434
14.6044
14.7802
16.2005
16.0077
16.0539
16.0556
16.0556
16.0534
16.0155
16.1586
17.7896
17.7548
17.7549
17.7559
17.756
17.7544
17.7639
17.7372
19.931
19.851
19.8639
19.8648
19.8648
19.8635
19.8632
19.8736
22.5981
22.5313
22.5435
22.5446
22.5448
22.5421
22.5397
22.5488
26.0466
26.0276
26.0264
26.0266
26.0266
26.0232
26.0175
26.034
30.6087
30.6001
30.6011
30.6014
30.6014
30.6009
30.5998
30.6109
9.86642
9.60785
9.86491
9.80068
12.6778
9.79395
13.0492
9.87998
9.88051
9.87464
12.6467
12.8802
13.0273
13.3886
9.85792
9.87415
9.85373
12.8806
12.881
13.3845
13.3825
9.86639
9.8614
9.86534
12.881
12.8711
13.3825
13.3734
9.87785
9.87774
9.87684
12.8744
12.6366
13.3797
13.0111
9.59445
9.87326
9.61054
12.6458
9.7485
13.015
9.75077
9.86734
9.63921
9.86032
9.79805
13.182
9.79831
13.5874
9.87504
9.87292
9.85959
13.1594
13.5766
13.5676
14.1616
9.85428
9.85842
9.8381
13.5659
13.5617
14.1563
14.1261
9.86749
9.84817
9.85794
13.5617
13.5533
14.1259
14.1178
9.87908
9.86926
9.86931
13.5603
13.1441
14.1257
13.5488
9.62011
9.86955
9.64094
13.1467
9.75524
13.5483
9.7694
9.86098
9.67985
9.83966
9.852
13.7313
9.82887
14.1496
9.85698
9.84691
9.82506
13.7134
14.3653
14.1404
14.9874
9.83452
9.82085
9.79709
14.3635
14.3316
14.9832
14.9679
9.85648
9.80906
9.82329
14.3312
14.3209
14.9675
14.9652
9.86834
9.83605
9.84035
14.3285
13.6937
14.9724
14.1331
9.65323
9.84569
9.68118
13.6922
9.77242
14.1304
9.75814
9.83203
9.72747
9.7947
9.82207
14.2925
9.79051
14.7647
9.81382
9.7946
9.76675
14.2937
15.2013
14.7512
15.9194
9.78387
9.75988
9.73556
15.2049
15.1965
15.9321
15.9256
9.81017
9.74507
9.75739
15.1962
15.1973
15.9248
15.9225
9.83035
9.7725
9.78753
15.2064
14.2892
15.9281
14.7435
9.694
9.79749
9.73324
14.2866
9.78252
14.7444
9.75425
9.79768
9.91141
9.90559
9.79633
14.9343
9.92334
15.4105
9.76701
9.89862
9.86674
14.909
16.1795
15.3924
16.9986
9.73764
9.86215
9.84824
16.1946
16.1906
17.0217
17.0289
9.75687
9.85136
9.85851
16.1895
16.1845
17.0273
17.0086
9.78952
9.86886
9.896
16.1871
14.9043
17.0081
15.4099
9.75989
9.90746
9.92383
14.9182
9.76524
15.4426
9.91339
9.99217
10.4196
10.3856
10.0179
15.5138
10.4068
15.5294
9.95097
10.3771
10.3404
15.468
18.403
15.4698
19.1839
9.93604
10.3379
10.3317
18.4192
18.3769
19.2163
19.1701
9.94387
10.3308
10.3353
18.3769
18.4193
19.1697
19.213
9.98259
10.3414
10.377
18.4011
15.5077
19.18
15.524
10.0167
10.3871
10.4299
15.5539
10.0117
15.5863
10.405
10.5483
11.1296
11.0945
10.5679
15.5444
11.0993
15.4647
10.5035
11.0814
11.0465
15.4825
19.326
15.4221
20.3301
10.4952
11.0429
11.0367
19.3595
19.3137
20.3675
20.31
10.4982
11.0356
11.0396
19.313
19.3562
20.3085
20.3614
10.54
11.0456
11.081
19.3212
15.5346
20.3147
15.4608
10.6059
11.0903
11.1292
15.5971
10.5672
15.5037
11.1001
11.285
11.9166
11.894
11.2887
15.4284
11.899
14.5736
11.2403
11.8944
11.8761
15.3844
20.4823
14.5137
21.2047
11.2307
11.8699
11.8633
20.5188
20.4579
21.1789
21.0695
11.2334
11.8627
11.8714
20.4565
20.5127
21.0713
21.166
11.2805
11.8787
11.8947
20.4642
15.4234
21.1954
14.5511
11.3177
11.8942
11.9158
15.4675
11.2898
14.6186
11.9006
12.1097
12.827
12.8185
12.1269
14.4113
12.8315
13.3221
12.1015
12.8158
12.8039
14.3803
21.1887
13.2777
20.6138
12.0926
12.8021
12.7964
21.1891
21.0671
20.6344
20.5189
12.0982
12.7966
12.7995
21.0538
21.1769
20.5242
20.6106
12.1104
12.802
12.8161
21.1785
14.4172
20.614
13.2894
12.1302
12.8196
12.8259
14.4558
12.1285
13.3461
12.8328
13.0743
13.884
13.8794
13.0806
13.282
13.8859
13.95
13.0574
13.879
13.8739
13.2368
20.4793
13.9457
16.3003
13.0503
13.8727
13.8684
20.5006
20.3931
16.3122
16.2354
13.0525
13.8689
13.8694
20.3986
20.4761
16.246
16.3032
13.0738
13.872
13.8796
20.4804
13.2428
16.3108
13.9418
13.0762
13.8811
13.8827
13.3004
13.0819
13.9483
13.8875
14.1714
15.1402
15.1423
14.1773
14.0999
15.134
15.2235
14.1688
15.1443
15.1494
14.0924
15.955
15.2249
15.2952
14.1649
15.1539
15.1624
15.9666
15.8848
15.2952
15.3256
14.1655
15.1626
15.1607
15.8943
15.9591
15.3256
15.2985
14.1714
15.1603
15.1481
15.9646
14.0904
15.2966
15.2267
14.176
15.1452
15.1391
14.0985
14.1792
15.2259
15.1388
15.4934
16.6442
16.663
15.4806
15.4047
16.6299
16.7465
15.5088
16.6684
16.6764
15.4037
15.3866
16.7485
16.7899
15.5253
16.6802
16.6782
15.3872
15.4142
16.7912
16.8034
15.5237
16.6807
16.6751
15.4142
15.3903
16.8028
16.7954
15.5043
16.6735
16.6693
15.3894
15.4072
16.791
16.7482
15.4867
16.6634
16.641
15.4012
15.4854
16.7455
16.6308
17.0846
18.4697
18.4867
17.053
16.9554
18.4324
18.6007
17.1019
18.4992
18.516
16.9527
17.0014
18.6176
18.6461
17.1032
18.5192
18.5144
17.0024
17.0141
18.6461
18.5699
17.1005
18.5146
18.5147
17.0139
17.0068
18.5699
18.6494
17.0905
18.5109
18.4964
17.0026
16.9632
18.6445
18.6
17.0587
18.4869
18.4553
16.958
17.0531
18.6004
18.4352
19.0138
20.7658
20.7737
18.9605
19.0134
20.7244
20.7659
19.0395
20.7826
20.7962
19.0187
19.0394
20.7725
20.6973
19.0392
20.7867
20.7721
19.0195
18.9696
20.6892
20.689
19.0347
20.7714
20.7801
18.9696
19.0204
20.689
20.6894
19.0177
20.7819
20.7718
19.0256
19.0036
20.6969
20.7547
18.9794
20.7681
20.7479
18.998
18.9669
20.7428
20.7249
21.4337
23.6751
23.6632
21.3701
21.4232
23.6321
23.5849
21.4439
23.6455
23.5801
21.4133
21.343
23.5779
23.5776
21.399
23.58
23.58
21.3428
21.3427
23.5776
23.5776
21.4093
23.58
23.58
21.3427
21.3428
23.5776
23.5776
21.4233
23.5801
23.648
21.343
21.4053
23.5777
23.5779
21.4087
23.6701
23.6652
21.4079
21.3663
23.5844
23.6227
24.498
26.9324
26.9206
24.4649
24.4324
26.915
26.9148
24.4351
26.915
26.9149
24.4328
24.4327
26.9148
26.9148
24.4352
26.9149
26.9149
24.4327
24.4327
26.9148
26.9148
24.4352
26.9149
26.9149
24.4327
24.4327
26.9148
26.9148
24.4668
26.9149
26.915
24.4327
24.4328
26.9148
26.9148
24.5123
26.9261
26.9331
24.4317
24.459
26.9149
26.9154
12.6587
9.85731
13.0284
9.82629
12.5686
9.83517
12.9201
13.0491
13.0416
13.6515
12.575
13.0047
12.9249
13.5757
13.0189
13.6425
13.617
12.9974
12.9946
13.5725
13.5853
13.025
13.615
13.6289
12.995
12.9844
13.5855
13.5728
12.6291
13.6434
13.0035
12.9884
12.5602
13.5774
12.9207
9.73358
13.0135
9.7529
12.5657
9.82605
12.9235
9.83448
13.1583
9.8503
13.5522
9.84219
13.0487
9.8504
13.4385
13.8704
13.5767
14.5623
13.0468
13.7861
13.4393
14.451
13.8295
14.531
14.4979
13.7824
13.7951
14.4462
14.458
13.8454
14.5013
14.5349
13.7953
13.7825
14.4582
14.4458
13.1347
14.5571
13.5324
13.7871
13.0488
14.4515
13.4398
9.75629
13.538
9.75256
13.0516
9.84145
13.4411
9.84941
13.6927
9.82554
14.1199
9.85537
13.5782
9.84062
14.0028
14.8005
14.1386
15.5626
13.5793
14.6894
14.0051
15.4468
14.7419
15.545
15.5146
14.6841
14.6956
15.4402
15.4497
14.7813
15.5183
15.5654
14.6957
14.6837
15.4498
15.4398
13.6729
15.5836
14.1041
14.6899
13.5795
15.4474
14.0047
9.75171
14.1063
9.74667
13.5806
9.85428
14.0052
9.83919
14.2727
9.78125
14.7378
9.83323
14.1544
9.80014
14.612
15.82
14.7559
16.7039
14.1569
15.7196
14.6164
16.5907
15.7927
16.7014
16.6823
15.7128
15.7212
16.584
16.5883
15.8495
16.6868
16.7443
15.7214
15.7124
16.5883
16.5836
14.2592
16.7624
14.7337
15.7202
14.1566
16.5915
14.6165
9.80799
14.7264
9.76924
14.1571
9.83169
14.6119
9.79835
14.9038
9.90751
15.3827
9.80826
14.7817
9.94289
15.2716
17.0248
15.3887
18.047
14.7877
16.906
15.2809
17.9141
17.0043
18.0409
18.0287
16.8998
16.9026
17.9103
17.9101
17.0677
18.0301
18.0958
16.9025
16.8994
17.9098
17.91
14.9036
18.1091
15.4118
16.9069
14.7878
17.9149
15.2806
9.77828
15.3878
9.90659
14.7818
9.80642
15.2716
9.94104
15.5051
10.3983
15.4869
10.0387
15.3695
10.4475
15.3604
18.3028
15.4549
19.2031
15.3735
18.1792
15.3647
19.0978
18.286
19.22
19.1856
18.1781
18.1443
19.1054
20.7559
18.3345
19.1912
19.2469
18.1439
18.1778
20.7672
19.105
15.4966
19.2469
15.4767
18.1794
15.3729
19.0979
15.3641
9.99768
15.5082
10.3984
15.3701
10.0369
15.3609
10.4462
15.4955
11.1003
15.4142
10.6115
15.3646
11.1431
15.227
19.3438
15.4109
20.3573
15.3687
19.2436
15.2324
20.3205
19.3258
20.3705
20.3072
19.2536
21.9721
20.3621
39.9734
19.389
20.3136
20.3976
21.9898
19.2533
40.0159
20.3622
15.483
20.401
15.3829
19.2436
15.3682
20.3209
15.2316
10.5623
15.3898
11.0997
15.365
10.6103
15.2275
11.1427
15.3729
11.9037
14.4507
11.3312
15.1636
11.9326
14.1912
20.5124
14.4813
21.1965
15.1694
20.4898
14.1994
21.3714
20.4545
21.1918
21.0569
20.5376
43.1188
21.4308
65.1847
20.55
21.0643
21.1819
43.1605
20.5379
64.998
21.4299
15.3399
21.1995
14.4296
20.4902
15.1686
21.3716
14.1986
11.2906
14.412
11.9034
15.164
11.3309
14.1917
11.9327
14.2729
12.8358
13.2378
12.1474
14.0154
12.8396
13.1189
21.2053
13.2468
20.6451
14.0234
21.3904
13.1214
20.9776
21.0594
20.6471
20.5285
21.453
65.7636
21.1262
105.664
21.1899
20.5419
20.622
65.6858
21.4522
104.553
21.1215
14.2582
20.6501
13.2067
21.3904
14.0228
20.9767
13.1212
12.1219
13.2167
12.8356
14.0158
12.1474
13.119
12.8396
13.2192
13.8887
13.954
13.0879
13.14
13.8927
13.9666
20.5127
13.9461
16.3907
13.1417
20.839
13.9678
16.2906
20.4059
16.3803
16.251
20.9927
109.911
16.4166
248.886
20.4897
16.2739
16.3495
108.694
20.9886
243.883
16.4195
13.1834
16.4131
13.94
20.838
13.1417
16.2943
13.9678
13.0825
13.9585
13.8885
13.1401
13.0879
13.9667
13.8927
14.1013
15.1375
15.2194
14.1833
14.112
15.1334
15.2152
15.9836
15.2195
15.2956
14.113
15.9432
15.2148
15.2648
15.8947
15.297
15.3267
16.0612
255.312
15.2686
15.5908
15.9863
15.327
15.3003
250.619
16.0644
15.5907
15.2686
14.0914
15.3004
15.2263
15.9464
14.1131
15.2648
15.2148
14.1803
15.2285
15.1404
14.112
14.1833
15.2152
15.1334
15.3949
16.6265
16.7431
15.4793
15.3878
16.6203
16.7185
15.3874
16.7418
16.7908
15.3873
15.3468
16.718
16.7135
15.4142
16.7901
16.7983
15.3492
15.5546
16.7127
16.7094
15.3923
16.7979
16.7938
15.5548
15.3492
16.7094
16.7127
15.4016
16.7875
16.7493
15.3468
15.3873
16.7135
16.718
15.4869
16.7487
16.6327
15.3878
15.4793
16.7185
16.6203
16.9447
18.4338
18.5946
17.0391
16.928
18.4334
18.5565
17.0024
18.6048
18.63
16.9275
16.9234
18.5562
18.5546
17.009
18.6146
18.557
16.9228
16.9199
18.5544
18.5535
17.0051
18.557
18.6283
16.9199
16.9228
18.5535
18.5544
16.9646
18.6327
18.6006
16.9234
16.9275
18.5546
18.5562
17.0547
18.6025
18.433
16.928
17.0391
18.5565
18.4334
18.9812
20.696
20.7185
18.9502
18.9501
20.6909
20.6895
18.9976
20.7261
20.6893
18.9497
18.9486
20.6893
20.6888
18.9487
20.6889
20.6888
18.9482
18.9477
20.6886
20.6884
18.9773
20.6888
20.689
18.9477
18.9482
20.6884
20.6886
18.9968
20.6892
20.7236
18.9486
18.9497
20.6888
20.6893
18.9545
20.7158
20.7023
18.9501
18.9503
20.6895
20.6909
21.3812
23.6002
23.5777
21.3443
21.343
23.5792
23.5777
21.3427
23.5777
23.5776
21.3428
21.3424
23.5776
23.5775
21.3425
23.5775
23.5775
21.3423
21.3422
23.5774
23.5774
21.3426
23.5775
23.5775
21.3422
21.3423
23.5774
23.5774
21.3701
23.5776
23.5777
21.3424
21.3428
23.5775
23.5776
21.3491
23.5779
23.5893
21.343
21.3443
23.5777
23.5792
24.4328
26.915
26.9148
24.4342
24.4328
26.9149
26.9148
24.4327
26.9148
26.9148
24.4327
24.4326
26.9148
26.9148
24.4326
26.9148
26.9148
24.4326
24.4325
26.9148
26.9147
24.4327
26.9148
26.9148
24.4325
24.4326
26.9147
26.9148
24.4328
26.9148
26.9148
24.4326
24.4327
26.9148
26.9148
24.4348
26.9148
26.915
24.4328
24.4342
26.9148
26.915
12.5581
9.84118
12.9165
9.82417
12.6249
9.81762
12.9911
12.9991
12.9293
13.5895
12.642
13.0503
13.0164
13.6616
13.01
13.5896
13.601
13.0674
13.0276
13.6722
13.6271
12.9986
13.6068
13.5882
13.0274
13.0365
13.6225
13.6362
12.5627
13.5941
12.9247
13.0401
12.632
13.645
13.0041
9.82997
12.9213
9.83835
12.6216
9.84485
12.9923
9.84086
13.0445
9.85632
13.4337
9.8192
13.1214
9.81223
13.5175
13.7999
13.4501
14.4652
13.1493
13.8805
13.5433
14.5515
13.8117
14.4642
14.4782
13.8912
13.8397
14.5693
14.5099
13.7984
14.4829
14.4625
13.8364
13.8495
14.5115
14.5292
13.0535
14.4706
13.4452
13.8617
13.138
14.5275
13.5386
9.84525
13.4388
9.85311
13.1229
9.84265
13.5192
9.83417
13.5729
9.84639
13.9968
9.81357
13.6591
9.79605
14.0708
14.7037
14.0164
15.4613
13.6924
14.7935
14.1243
15.5556
14.7172
15.4589
15.476
14.8193
14.7619
15.5923
15.5461
14.7005
15.4795
15.457
14.7632
14.7729
15.5462
15.5639
13.5851
15.4672
14.011
14.769
13.6847
15.5459
14.1181
9.85797
14.0024
9.84281
13.6575
9.83445
14.0685
9.8123
14.1483
9.80448
14.6087
9.79038
14.2312
9.76356
14.6928
15.7341
14.6307
16.6048
14.295
15.8474
14.7714
16.7584
15.7492
16.6028
16.6209
15.8785
15.8323
16.7993
16.7378
15.7296
16.6239
16.6008
15.8319
15.8485
16.7354
16.7652
14.163
16.6115
14.6247
15.835
14.289
16.7434
14.7604
9.83526
14.6148
9.80158
14.2266
9.80487
14.6882
9.77301
14.773
9.94471
15.2637
9.77137
14.8605
9.8989
15.3546
16.9199
15.2806
17.9256
14.9369
17.0941
15.4681
18.1427
16.9365
17.9252
17.9427
17.13
17.0599
18.1604
18.0678
16.9165
17.9422
17.9263
17.0571
17.0959
18.0643
18.1272
14.7891
17.9293
15.2796
17.082
14.9494
18.1444
15.4664
9.8095
15.2646
9.94362
14.8538
9.7798
15.3545
9.90761
15.3716
10.4483
15.3611
9.98779
15.5027
10.3817
15.4565
18.1811
15.3716
19.101
15.5216
18.4383
15.5
19.3358
18.1696
19.1148
20.9381
18.4397
18.3067
19.3517
19.199
18.1793
20.9182
19.1095
18.3071
18.4085
19.1989
19.3265
15.3748
19.1059
15.3653
18.4407
15.5343
19.3661
15.5341
10.0393
15.3675
10.4478
15.5277
9.99728
15.5098
10.3927
15.3651
11.1435
15.2276
10.5465
15.4598
11.0848
15.3567
19.2468
15.2415
20.3226
15.5034
19.4808
15.4072
20.5098
22.0745
20.374
37.481
19.4965
19.3391
20.5351
20.3174
19.2581
37.4183
20.3682
19.3389
19.4714
20.3173
20.5071
15.3692
20.3282
15.2327
19.5102
15.5147
20.5498
15.4267
10.6117
15.2363
11.1431
15.4962
10.5563
15.4078
11.0934
15.1642
11.9326
14.1923
11.2758
15.3084
11.8936
14.4335
20.4914
14.2115
21.3623
15.3636
20.6676
14.5089
21.2949
40.4266
21.4239
62.664
20.69
20.4635
21.286
21.0551
20.5438
62.827
21.4177
20.4635
20.6751
21.0569
21.1917
15.1697
21.3679
14.2002
20.723
15.3849
21.2575
14.5379
11.331
14.2034
11.9324
15.3641
11.2844
14.5142
11.9007
14.0164
12.8394
13.1192
12.1102
14.2648
12.8331
13.2209
21.3808
13.1244
20.9632
14.3287
21.2974
13.1969
20.6649
63.8152
21.1148
105.741
21.2835
21.0591
20.6616
20.5021
21.4392
105.718
21.1009
21.0598
21.196
20.5066
20.7152
14.0242
20.9729
13.1215
21.2636
14.3603
20.7654
13.2224
12.1471
13.1222
12.8393
14.3461
12.1199
13.2678
12.832
13.1402
13.8925
13.9664
13.082
13.2039
13.8882
13.9594
20.8238
13.9675
16.2883
13.1584
20.5378
13.9504
16.409
111.042
16.4249
314.006
20.5303
20.3728
16.4269
16.2007
20.9666
313.632
16.4128
20.3742
20.5719
16.2058
16.4461
13.1417
16.3058
13.9675
20.6271
13.1795
16.4339
13.9489
13.0876
13.9665
13.8923
13.239
13.0828
13.9581
13.8884
14.1118
15.1332
15.2153
14.1797
14.105
15.1377
15.2241
15.9431
15.2148
15.2647
14.1033
16.0576
15.2296
15.307
15.2683
15.7497
16.0773
15.8668
15.3143
15.3108
16.061
15.7501
15.2684
15.871
16.0943
15.3109
15.3115
14.1128
15.2648
15.2148
16.0843
14.1023
15.306
15.232
14.1829
15.2153
15.1331
14.1044
14.1799
15.2307
15.138
15.3879
16.6201
16.7187
15.484
15.3985
16.6307
16.7501
15.3467
16.718
16.7136
15.407
15.3961
16.7535
16.7764
15.5886
16.7128
16.7096
15.4027
15.3966
16.7978
16.8012
15.3492
16.7096
16.7128
15.3967
15.4
16.8012
16.7974
15.3873
16.7136
16.7181
15.3953
15.4052
16.7741
16.7533
15.479
16.7187
16.6199
15.404
15.4842
16.7501
16.631
16.9281
18.4332
18.5566
17.0512
16.9645
18.4378
18.6079
16.9235
18.5562
18.5547
16.9694
16.9882
18.6089
18.6169
16.9201
18.5544
18.5536
17.01
17.0131
18.5765
18.5569
16.9229
18.5536
18.5544
17.0131
17.0102
18.5569
18.5838
16.9275
18.5547
18.5562
16.9854
16.9693
18.618
18.6088
17.0387
18.5567
18.4329
16.9634
17.0518
18.6079
18.4383
18.9501
20.6906
20.6895
18.9752
19.0027
20.7255
20.7061
18.9487
20.6893
20.6888
19.0049
18.9722
20.6964
20.6892
18.9477
20.6887
20.6884
18.9494
18.949
20.6892
20.689
18.9483
20.6884
20.6887
18.949
18.9563
20.689
20.6891
18.9497
20.6888
20.6893
18.9732
19.0043
20.6893
20.696
18.9497
20.6895
20.6902
19.0023
18.969
20.7056
20.7316
21.343
23.5788
23.5777
21.3623
21.3444
23.5811
23.6003
21.3425
23.5776
23.5775
21.3436
21.3428
23.5873
23.5776
21.3422
23.5775
23.5774
21.3427
21.3426
23.5776
23.5775
21.3424
23.5774
23.5775
21.3426
21.3427
23.5775
23.5776
21.3428
23.5775
23.5776
21.3428
21.3434
23.5776
23.5872
21.3436
23.5777
23.5783
21.3442
21.3649
23.6109
23.5787
24.4328
26.915
26.9148
24.4434
24.4344
26.9181
26.9148
24.4326
26.9148
26.9148
24.4329
24.4327
26.9148
26.9148
24.4325
26.9148
26.9147
24.4327
24.4327
26.9148
26.9148
24.4326
26.9147
26.9148
24.4327
24.4327
26.9148
26.9148
24.4327
26.9148
26.9148
24.4327
24.4329
26.9148
26.9148
24.4333
26.9148
26.915
24.443
24.441
26.9149
26.9224
12.6412
9.84161
13.0008
9.65345
9.85955
9.68042
9.86114
12.9086
12.9991
13.4307
9.86979
9.88633
9.86958
9.87875
12.8896
13.4168
13.397
9.88146
9.86647
9.87223
9.86085
12.9005
13.4014
13.4046
9.86741
9.88183
9.86234
9.87649
12.6596
13.4173
13.0367
9.8825
9.87006
9.87841
9.8702
9.84631
13.0599
9.85075
9.85249
9.62755
9.8522
9.65191
13.1348
9.84095
13.5446
9.68989
9.86653
9.70979
9.86278
13.6218
13.5435
14.1992
9.87441
9.87976
9.86909
9.86498
13.5785
14.1881
14.1498
9.87233
9.86051
9.85478
9.84294
13.5848
14.1543
14.1523
9.86211
9.8762
9.84463
9.85852
13.1729
14.1683
13.5787
9.87878
9.87317
9.86353
9.86639
9.85405
13.5836
9.84937
9.85522
9.65904
9.85
9.68029
13.6916
9.82428
14.1203
9.71971
9.8638
9.73983
9.84025
14.3962
14.1173
15.0246
9.86931
9.86266
9.84278
9.83258
14.3598
15.0153
15.0172
9.85166
9.83971
9.82063
9.8072
14.3605
15.0209
15.0114
9.8413
9.85538
9.80826
9.82426
13.7195
15.0296
14.142
9.86109
9.86664
9.83112
9.84351
9.8508
14.1554
9.8305
9.85091
9.69112
9.83058
9.71969
14.2848
9.78579
14.7438
9.74641
9.83148
9.76726
9.79136
15.2596
14.7522
16.0059
9.83272
9.82235
9.78861
9.7782
15.2677
16.0024
16.0206
9.81059
9.79646
9.76813
9.75358
15.2456
16.0251
16.0024
9.7973
9.81416
9.75391
9.77104
14.3059
16.0128
14.7609
9.821
9.83552
9.77697
9.79855
9.82274
14.7771
9.79149
9.82358
9.72936
9.78907
9.77471
14.9135
9.90946
15.406
9.7984
9.79356
9.93944
9.89641
16.2912
15.4194
17.0986
9.78937
9.77881
9.88709
9.87673
16.2901
17.0829
17.1116
9.76939
9.75582
9.86863
9.86212
16.2803
17.1139
17.0908
9.75603
9.77192
9.8621
9.87006
14.9423
17.1102
15.4364
9.7774
9.80164
9.87471
9.90617
9.79481
15.4404
9.91687
9.7927
9.78995
9.89693
9.93918
15.5082
10.3977
15.4881
10.0334
9.98043
10.4308
10.3655
18.3999
15.4733
19.1739
9.96974
9.95963
10.3546
10.346
18.4057
19.2107
19.2031
9.95164
9.94796
10.3374
10.3398
18.3818
19.2301
19.1547
9.94788
9.95301
10.3396
10.3397
15.4917
19.1776
15.5097
9.95788
9.99138
10.3458
10.3798
10.0076
15.5497
10.4052
9.98152
10.0311
10.3725
10.4304
15.4947
11.1022
15.4127
10.585
10.5284
11.1149
11.0755
19.3119
15.4081
20.3055
10.5171
10.509
11.0593
11.0518
19.3465
20.3734
20.346
10.4998
10.5027
11.0411
11.0427
19.2937
20.3871
20.3707
10.5025
10.5026
11.0426
11.0463
15.4953
20.4845
15.4098
10.5091
10.5392
11.0539
11.0737
10.5688
15.4633
11.1061
10.5328
10.5957
11.0702
11.1313
15.3677
11.9064
14.5269
11.3027
11.2691
11.9081
11.8957
20.4599
14.5128
21.1405
11.2607
11.2478
11.8885
11.8817
20.4947
21.1386
21.0981
11.2367
11.2359
11.8838
11.876
20.5087
21.105
21.1224
11.2358
11.2415
11.8756
11.8609
15.3661
21.2268
14.5182
11.2468
11.2643
11.8629
11.8826
11.2967
14.602
11.9086
11.2609
11.3189
11.8802
11.923
14.3609
12.8307
13.2926
12.124
12.1109
12.8263
12.8177
21.1478
13.2335
20.6233
12.1063
12.1008
12.8183
12.8141
21.0922
20.6469
20.4978
12.1013
12.1009
12.8103
12.8019
21.1273
20.5096
20.6499
12.1006
12.0848
12.8019
12.811
14.3503
20.6398
13.2464
12.0869
12.1103
12.815
12.8185
12.1258
13.3341
12.8321
12.1076
12.1355
12.8168
12.8264
13.2581
13.887
13.9557
13.0759
13.0729
13.8829
13.8783
20.4924
13.952
16.3434
13.0724
13.0672
13.878
13.8767
20.3468
16.3996
16.1889
13.0658
13.0566