/*--------------------------------*- C++ -*----------------------------------*\
| =========                 |                                                 |
| \\      /  F ield         | OpenFOAM: The Open Source CFD Toolbox           |
|  \\    /   O peration     | Version:  2206                                  |
|   \\  /    A nd           | Website:  www.openfoam.com                      |
|    \\/     M anipulation  |                                                 |
\*---------------------------------------------------------------------------*/
FoamFile
{
    version     2.0;
    format      ascii;
    arch        "LSB;label=32;scalar=64";
    class       volScalarField;
    location    "200";
    object      ReThetat;
}
// * * * * * * * * * * * * * * * * * * * * * * * * * * * * * * * * * * * * * //

dimensions      [0 0 0 0 0 0 0];

internalField   nonuniform List<scalar> 
187974
(
523.683
533.921
536.243
537.481
537.453
536.089
534.375
521.956
504.727
515.049
516.825
518.071
518.039
516.691
515.591
502.758
493.647
503.315
504.503
505.663
505.628
504.428
503.948
491.572
481.624
490.838
490.097
490.784
490.754
490.299
491.762
479.386
466.117
476.371
475.573
474.652
474.62
475.612
477.31
463.734
448.918
459.731
459.477
457.095
457.052
459.299
460.445
446.478
430.345
441.242
440.597
438.557
438.517
440.454
442.097
428.106
409.857
420.767
419.879
418.805
418.764
419.741
421.74
407.525
395.999
401.578
401.348
401.335
401.315
401.291
402.334
394.291
382.599
387.05
386.908
386.762
386.763
386.832
387.887
381.239
368.606
372.377
371.866
371.711
371.714
371.841
372.793
366.426
355.586
357.187
356.821
356.63
356.639
356.839
357.905
353.838
341.158
342.011
341.515
341.523
341.53
341.492
342.638
339.312
324.808
325.842
325.921
325.892
325.884
325.882
326.408
323.13
308.618
309.54
309.46
309.439
309.43
309.432
309.934
307.369
292.153
292.947
292.899
292.89
292.888
292.89
292.865
292.208
276.056
275.979
275.963
275.969
275.969
275.964
275.959
275.771
258.487
258.58
258.559
258.555
258.555
258.56
258.58
258.52
240.631
240.699
240.691
240.69
240.69
240.691
240.7
240.624
222.274
222.314
222.312
222.311
222.311
222.312
222.315
222.273
530.53
567.394
564.765
563.415
563.408
564.933
567.513
530.486
507.918
545.181
542.92
541.671
541.672
543.091
545.297
507.628
463.94
548.752
544.71
541.251
540.894
542.516
546.806
554.341
441.854
526.389
525.359
522.375
522.044
523.627
525.895
525.348
426.645
502.87
505.102
504.154
503.827
504.658
501.242
503.962
414.434
481.914
479.957
484.638
484.939
482.341
480.333
483.648
403.668
459.757
458.216
464.096
464.81
461.113
458.42
461.782
393.639
435.643
435.109
439.895
440.309
437.794
434.692
438.036
383.547
410.783
411.164
413.183
413.181
413.28
410.46
414.004
372.621
394.289
393.635
393.677
393.716
393.745
393.856
395.717
362.262
377.613
377.684
377.645
377.634
377.674
377.681
378.049
352.492
361.797
362.021
362.008
361.994
362.032
361.741
362.372
341.655
345.902
346.219
346.259
346.269
346.26
345.941
346.38
330.155
329.973
330.004
330.013
330.016
329.986
330.005
330.47
313.705
313.703
313.638
313.515
313.456
313.47
313.559
314.202
297.352
297.234
297.094
297.041
297.038
297.06
297.116
297.668
280.644
280.494
280.396
280.375
280.377
280.392
280.447
280.876
263.456
263.332
263.281
263.258
263.258
263.272
263.313
263.416
245.638
245.598
245.632
245.627
245.625
245.635
245.562
245.683
222.125
222.174
222.198
222.197
222.197
222.198
222.162
222.138
511.022
418.135
403.653
403.613
403.648
403.707
418.165
510.762
488.46
420.437
414.389
414.203
414.557
414.261
412.778
487.906
424.295
408.774
402.418
401.969
402.156
402.102
403.043
543.126
419.996
414.88
403.775
403.861
404.203
403.892
404.02
520.821
408.64
414.196
403.74
403.884
404.18
403.84
403.954
504.61
400.511
412.95
403.841
404.045
404.362
403.907
403.96
488.357
391.932
411.203
404.213
404.863
405.123
404.425
404.275
469.984
385.627
409.591
405.982
407.104
407.627
406.656
405.926
440.241
376.779
405.581
405.485
406.614
407.008
406.31
405.244
409.593
369.111
394.079
395.975
396.983
397.19
396.865
395.747
393.036
364.17
379.231
380.214
381.188
381.354
381.117
380.08
377.225
353.537
363.654
364.195
364.394
364.612
364.414
364.204
361.577
342.728
347.951
348.191
348.657
348.804
348.606
348.111
345.905
330.174
332.067
332.384
332.641
332.763
332.608
332.297
330.015
313.746
315.742
315.725
315.506
315.376
315.429
315.693
313.784
297.329
299.249
298.958
298.734
298.706
298.825
299.026
297.357
280.617
282.512
282.269
282.076
282.076
282.167
282.379
280.674
263.328
265.365
265.255
265.403
265.508
265.352
265.37
263.41
245.625
247.883
248.165
248.31
248.307
248.311
247.965
245.768
222.197
227.561
227.564
227.564
227.563
227.564
227.567
222.199
510.337
404.748
385.51
385.271
385.368
385.511
404.529
510.854
489.089
414.862
368.952
368.352
368.613
368.612
369.238
488.477
433.423
403.011
357.828
356.432
356.656
356.72
360.424
540.388
428.223
404.582
350.126
345.928
346.275
346.246
350.233
517.982
417.017
404.825
341.712
334.067
334.397
334.157
342.149
500.76
406.054
404.843
333.606
321.898
322.307
321.734
334.187
482.508
397.771
405.112
325.778
309.827
309.966
309.238
326.278
457.41
389.409
406.715
317.91
297.278
297.35
296.774
318.378
435.465
381.036
405.445
311.554
285.561
285.601
285.404
311.051
411.073
372.4
395.528
311.814
276.9
276.922
276.737
311.253
393.768
363.255
379.958
311.966
268.212
268.321
268.075
312.193
377.536
352.993
364.038
321.768
263.741
264.007
263.751
322.732
361.574
342.194
348.099
340.6
268.468
269.319
268.448
341.288
346.002
330.276
332.368
334.457
304.178
305.718
304.016
334.109
330.206
313.767
315.877
317.023
316.702
315.305
316.719
316.964
313.857
297.323
299.312
300.232
299.046
298.574
299.149
300.013
297.394
280.655
282.764
282.439
282.319
282.442
282.136
282.356
280.771
263.618
265.857
265.646
265.785
265.767
265.795
265.626
263.661
245.887
248.276
248.311
248.299
248.295
248.301
248.315
245.955
222.224
227.563
227.564
227.563
227.562
227.563
227.564
222.224
511.718
404.068
385.718
385.315
385.335
385.705
406.335
508.057
490.461
415.35
369.631
369.221
369.021
369.22
369.275
490.92
431.686
403.365
358.505
356.788
356.705
357.117
360.546
532.174
427.126
405.83
351.225
346.485
346.137
346.501
351.338
510.764
416.478
405.44
343.259
334.616
334.268
334.626
343.426
493.976
406.235
404.876
335.315
322.59
322.226
322.594
335.528
475.991
398.334
404.589
327.396
310.406
309.992
310.404
327.647
456.317
389.938
405.876
319.518
298.007
297.457
298.011
319.773
434.679
381.18
404.614
312.707
286.344
285.035
286.388
312.774
410.81
372.168
394.282
312.765
277.423
262.715
277.596
312.827
393.943
362.932
378.887
313.469
267.28
196.758
268.03
313.59
377.81
353.249
363.334
324.655
259.856
124.104
260.742
324.888
361.75
342.936
348.066
343.135
260.383
141.573
262.308
343.171
346.123
330.339
332.491
335.073
308.246
309.355
334.731
330.266
313.802
315.962
317.135
314.325
277.671
315.017
317.166
313.929
297.336
299.362
300.08
298.818
297.622
299.039
300.163
297.431
280.687
282.782
282.623
282.379
282.268
282.44
282.679
280.772
263.626
265.852
265.81
265.752
265.729
265.765
265.828
263.705
245.897
248.311
248.306
248.291
248.286
248.294
248.31
245.966
222.224
227.562
227.563
227.562
227.562
227.563
227.564
222.224
510.348
415.835
401.561
401.654
402.458
403.125
419.881
508.577
487.385
411.856
368.719
368.168
368.27
368.057
368.973
491.826
424.476
401.095
359.414
358.772
358.985
358.691
361.199
535.104
427.623
405.283
350.236
347.342
347.535
347.302
349.672
512.344
413.971
405.364
342.446
336.759
337.063
336.843
341.673
492.207
403.708
405.278
334.217
326.121
326.346
326.231
333.766
474.107
395.02
405.428
326.091
315.486
315.223
315.357
325.701
454.662
385.866
406.74
318.094
304.194
304.032
304.059
317.978
433.203
374.193
405.392
311.605
285.002
284.914
285.197
310.912
410.057
369.796
395.429
311.675
277.373
277.086
277.445
311.096
393.624
358.729
379.888
312.06
268.655
268.511
268.046
311.498
377.698
352.904
363.921
321.478
264.575
264.651
264.078
320.476
361.464
342.863
348.009
340.541
268.758
270.135
268.753
339.015
345.941
330.184
332.224
333.856
302.761
304.965
302.885
333.781
330.082
313.731
315.868
316.919
316.822
316.503
316.878
316.825
313.857
297.295
299.299
300.004
299.192
299.03
299.367
300.083
297.363
280.532
282.656
282.364
282.244
282.507
282.127
282.399
280.605
263.573
265.612
265.81
265.819
265.806
265.827
265.689
263.615
245.868
248.173
248.27
248.308
248.304
248.31
248.086
245.895
222.161
227.517
227.565
227.564
227.564
227.564
227.568
222.16
516.846
561.249
557.851
557.787
559.307
565.315
568.419
538.58
495.393
538.912
537.097
537.019
537.703
544.058
546.318
511.145
428.382
516.182
517.021
519.863
521.917
522.318
522.877
544.293
432.308
506.173
505.665
506.75
507.518
507.906
508.725
520.376
414.643
490.149
491.89
491.231
491.271
491.492
492.122
503.079
403.318
473.096
473.688
473.443
473.507
473.586
474.021
485.285
398.936
453.929
454.062
454.02
454.096
454.034
454.304
464
390.941
432.375
432.656
432.758
432.811
432.642
432.731
438.036
384.408
408.813
409.182
409.319
409.405
409.154
409.126
412.97
374.407
393.128
393.292
393.368
393.42
393.292
393.273
393.707
365.011
377.429
377.591
377.669
377.708
377.638
377.563
377.732
354.537
361.702
361.874
361.973
362.005
361.915
361.775
361.454
344.507
345.903
346.103
346.225
346.278
346.143
346.031
345.831
329.893
329.988
330.135
330.136
330.182
330.102
330.117
329.936
313.714
313.617
313.521
313.375
313.397
313.403
313.647
313.731
297.219
297.041
297.02
296.88
296.879
296.926
297.091
297.261
280.477
280.348
280.305
280.181
280.17
280.204
280.373
280.537
263.391
263.24
263.138
263.13
263.109
263.111
263.227
263.456
245.693
245.464
245.442
245.5
245.491
245.5
245.435
245.581
222.079
222.087
222.107
222.106
222.106
222.107
222.083
222.102
532.81
540.124
541.453
547.483
547.35
536.355
535.202
521.192
515.037
520.382
520.876
526.363
526.494
517.002
516.42
503.315
500.61
504.509
507.845
512.096
512.288
504.858
503.211
493.307
483.337
493.668
491.419
494.487
494.717
489.374
490.23
479.16
462.549
473.315
474.712
476.236
476.581
474.609
476.058
462.961
444.73
459.64
457.461
457.372
458.013
458.302
459.746
445.637
428.41
440.826
438.77
438.996
440.059
440.134
441.677
427.428
407.968
421.253
418.635
418.772
419.865
420.296
421.706
409.006
395.115
402.673
401.205
401.296
401.542
401.713
402.697
395.62
381.275
388.399
386.942
386.749
386.719
386.703
387.682
381.16
367.895
373.163
371.857
371.667
371.673
371.931
372.811
368.492
353.831
357.692
356.848
356.696
356.693
356.838
357.655
354.214
339.926
342.609
341.797
341.81
341.81
341.802
342.516
340.371
323.666
326.382
325.824
325.827
325.826
325.828
326.3
324.109
307.886
309.937
309.435
309.426
309.426
309.44
309.852
308.337
292.551
292.905
292.897
292.891
292.891
292.901
292.823
293.025
275.48
276.083
275.979
275.975
275.975
275.982
275.993
275.903
258.237
258.644
258.566
258.56
258.559
258.574
258.594
258.529
240.593
240.689
240.691
240.69
240.69
240.705
240.734
240.652
222.285
222.317
222.313
222.312
222.312
222.314
222.318
222.277
404.017
414.263
404.036
406.57
349.698
406.734
343.635
403.67
403.616
403.714
350.202
347.704
343.979
339.884
404.208
403.741
404.236
347.662
347.646
339.907
339.897
404.049
404.034
404.06
347.646
347.799
339.891
340.05
403.748
403.724
403.732
347.786
350.35
339.995
344.222
414.524
403.849
414.068
350.165
408.384
344.148
408.298
403.956
413.147
404.071
406.549
341.571
406.396
335.541
403.657
403.682
403.899
341.913
337.135
335.819
328.986
404.16
403.914
404.397
337.245
337.256
329.058
329.358
403.976
404.15
404.067
337.249
337.402
329.358
329.516
403.642
403.748
403.762
337.333
342.14
329.421
336.081
413.698
403.826
412.924
342.091
408.104
336.087
407.415
404.008
411.508
404.183
404.665
333.487
404.917
327.733
403.901
403.965
404.352
333.734
326.292
327.836
318.472
404.397
404.415
404.973
326.324
326.638
318.535
318.631
404.011
404.706
404.347
326.639
326.825
318.634
318.733
403.717
404.012
404.005
326.73
334.002
318.649
327.937
412.45
403.941
411.33
334.024
407.2
328.001
407.22
404.249
409.824
405.412
404.939
325.825
405.942
319.857
404.528
405.288
406.058
325.8
315.92
319.942
307.839
405.233
406.269
407.138
315.891
315.9
307.705
307.685
404.532
406.736
406.253
315.902
315.971
307.69
307.797
404.14
405.812
405.54
315.872
325.868
307.756
320.071
410.774
405.28
409.59
325.948
406.15
320.174
407.168
405.838
406.948
406.099
406.22
317.804
405.852
312.279
406.644
406.261
407.31
318.005
305.076
312.36
296.885
407.737
407.551
408.27
304.917
304.87
296.658
296.507
406.913
408.016
407.687
304.877
305.011
296.517
296.769
405.98
407.177
406.443
305.004
318.109
296.797
312.243
409.108
406.03
406.565
318.08
407.263
312.018
406.18
405.178
398.123
399.025
404.748
311.113
398.469
311.09
406.269
399.224
400.164
311.532
285.102
311.701
278.501
407.048
400.259
400.518
284.961
285.118
278.226
278.349
406.609
400.498
400.336
285.117
284.951
278.352
278.246
405.482
400.119
399.25
285.111
311.228
278.518
311.083
405.236
398.979
397.827
310.799
404.994
310.452
398.603
395.777
383.171
384.12
395.233
310.926
383.935
311.194
396.89
384.398
385.235
311.554
277.379
311.59
269.84
397.179
385.311
385.461
277.095
277.211
269.525
269.672
397.041
385.488
385.373
277.216
277.115
269.683
269.565
395.977
385.227
384.406
277.4
310.946
269.926
311.146
394.27
384.214
383.179
310.319
395.322
310.746
383.939
380.108
367.55
368.137
379.971
311.33
368.039
318.744
381.124
368.122
368.524
311.751
268.754
319.34
263.81
381.335
368.654
368.806
268.445
268.603
263.923
264.143
381.256
368.825
368.604
268.613
268.485
264.137
264.008
380.188
368.441
368.114
268.857
311.317
263.874
318.867
379.245
368.137
367.565
310.898
379.961
318.214
368.012
364.21
351.895
352.195
363.873
320.52
351.973
337.322
364.39
352.282
352.539
320.821
263.953
337.885
267.844
364.597
352.6
352.766
263.891
264.196
267.702
268.542
364.443
352.769
352.64
264.29
263.971
268.509
267.844
364.194
352.565
352.277
264.02
320.341
267.843
337.56
363.67
352.178
351.913
319.978
363.843
336.828
351.946
348.134
336.095
336.333
348.095
339.235
336.333
336.069
348.578
336.399
336.658
339.807
268.721
336.267
300.777
348.82
336.728
336.882
268.579
269.556
300.762
302.059
348.697
336.875
336.774
269.52
268.729
301.958
300.85
348.186
336.685
336.389
268.714
339.547
300.668
336.356
347.97
336.309
336.114
338.783
348.069
336.079
336.308
332.32
319.831
319.897
332.326
334.032
320.027
319.135
332.583
319.897
319.883
334.264
304.256
319.142
318.111
332.769
319.839
319.739
304.239
305.704
318.077
316.916
332.678
319.738
319.754
305.608
304.321
316.916
318.049
332.374
319.749
319.85
304.151
334.327
318.091
319.119
332.09
319.862
319.844
334.051
332.297
319.112
319.966
315.748
303.344
303.153
315.902
316.911
303.452
302.164
315.586
303.088
302.954
316.931
316.881
302.104
301.293
315.368
302.898
302.876
316.823
315.675
301.205
300.726
315.407
302.851
302.948
315.676
316.794
300.731
301.168
315.633
302.983
303.08
316.84
316.885
301.285
302.11
315.764
303.15
303.376
316.956
315.846
302.175
303.443
299.025
286.749
286.591
299.289
300.106
287.003
285.536
298.791
286.475
286.295
300.093
299.259
285.38
285
298.723
286.255
286.272
299.185
298.77
284.978
285.483
298.786
286.271
286.295
298.77
299.146
285.483
284.952
298.955
286.338
286.498
299.25
299.996
285.012
285.523
299.284
286.591
286.867
300.085
299.289
285.539
286.98
282.356
269.676
269.617
282.744
282.274
269.928
269.625
282.108
269.55
269.44
282.199
281.941
269.565
270.024
282.081
269.498
269.586
282.06
282.383
270.064
270.045
282.135
269.591
269.543
282.384
282.053
270.045
270.064
282.313
269.536
269.622
282.045
282.315
270.026
269.683
282.64
269.655
269.797
282.393
282.694
269.779
269.924
265.317
252.273
252.337
265.704
265.349
252.495
252.742
265.232
252.429
252.773
265.399
265.813
252.774
252.763
265.505
252.772
252.769
265.804
265.79
252.76
252.755
265.447
252.769
252.772
265.79
265.805
252.755
252.76
265.377
252.773
252.416
265.813
265.45
252.763
252.774
265.48
252.3
252.327
265.446
265.729
252.745
252.545
248
236.655
236.706
248.16
248.32
236.728
236.728
248.311
236.729
236.727
248.315
248.306
236.726
236.724
248.307
236.727
236.726
248.304
248.3
236.723
236.722
248.31
236.726
236.727
248.3
248.304
236.722
236.723
248.156
236.727
236.729
248.306
248.315
236.724
236.726
247.927
236.683
236.652
248.323
248.19
236.728
236.726
349.937
404.712
343.837
405.832
351.177
405.61
345.38
345.9
343.697
336.972
351.019
346.436
345.255
337.853
346.274
337.025
337.344
346.476
346.441
337.82
337.522
346.262
337.372
337.327
346.434
346.68
337.519
337.815
350.416
337.196
344.253
346.693
351.257
337.828
345.322
408.796
344.097
408.068
351.226
405.848
345.329
405.642
341.794
404.699
335.879
405.386
343.348
405.08
337.452
333.884
335.561
324.65
343.327
334.835
337.384
325.831
334.326
325.028
325.375
334.806
334.505
325.803
325.493
334.273
325.334
325.069
334.502
334.804
325.491
325.807
342.177
324.815
336.159
334.82
343.296
325.826
337.376
407.9
336.108
407.875
343.305
405.42
337.414
405.118
333.862
404.873
327.989
404.819
335.431
404.566
329.551
321.639
327.746
312.575
335.354
322.786
329.447
313.667
322.297
312.788
313.083
322.758
322.442
313.639
313.294
321.957
313.044
312.614
322.44
322.762
313.291
313.643
334.132
312.389
328.192
322.781
335.351
313.662
329.451
407.799
328.199
407.499
335.397
404.859
329.519
404.615
325.976
406.055
320.1
404.512
327.539
405.489
321.698
309.677
319.867
300.396
327.43
310.574
321.58
301.292
309.954
300.396
300.538
310.544
310.182
301.254
300.781
309.431
300.496
300.014
310.179
310.548
300.779
301.257
326.149
299.86
320.167
310.568
327.434
301.285
321.58
405.183
320.281
406.506
327.505
404.564
321.699
405.554
318.087
406.428
312.534
405.839
319.627
405.588
313.873
297.243
312.417
287.863
319.49
298.142
313.724
288.724
297.34
287.837
287.823
298.096
297.548
288.642
287.526
296.833
287.811
287.392
297.546
298.099
287.524
288.647
318.114
287.362
312.226
298.134
319.491
288.717
313.73
406.774
312.492
406.521
319.626
405.906
313.874
405.656
311.176
398.855
311.513
404.576
312.774
397.672
312.864
285.649
311.845
278.121
312.695
286.387
312.803
278.72
285.6
277.971
278.032
286.347
284.824
278.575
267.132
285.36
277.989
277.774
284.823
286.352
267.108
278.581
311.331
277.797
311.514
286.386
312.704
278.723
312.815
405.393
311.205
398.857
312.77
404.631
312.863
397.715
311.431
383.98
311.671
394.288
312.788
382.833
313.186
277.006
311.688
269.414
312.73
277.567
313.079
269.255
276.91
269.249
269.388
277.393
262.311
268.689
191.867
276.65
269.347
269.066
262.264
277.399
191.671
268.7
311.423
269.121
311.886
277.571
312.742
269.262
313.094
395.516
311.839
383.985
312.788
394.325
313.183
382.849
311.836
367.99
320.045
378.891
313.535
367.188
322.711
268.31
319.604
263.735
313.414
267.973
322.475
260.755
268.307
263.712
264.003
267.317
180.401
259.917
123.096
267.978
263.958
263.768
180.218
267.329
123.386
259.954
312.104
263.714
320.174
267.982
313.427
260.781
322.486
379.973
320.49
367.998
313.532
378.901
322.702
367.186
322.059
351.904
339.071
363.333
324.818
351.872
341.921
263.711
338.638
267.504
324.579
260.506
341.806
261.064
264.002
267.489
268.258
259.613
122.752
259.06
159.212
263.751
268.176
267.635
122.648
259.647
160.506
259.073
322.116
267.478
339.325
260.531
324.586
261.048
341.794
364.049
339.541
351.903
324.808
363.33
341.902
351.869
340.776
336.375
336.187
348.071
343.164
336.489
336.754
268.384
336.504
300.057
343.108
262.016
337.096
305.053
269.312
300.274
301.965
259.948
160.607
303.776
149.338
268.525
301.738
300.574
162.05
259.948
152.207
303.737
341.106
299.85
336.68
261.992
343.093
305.01
337.093
348.099
336.127
336.375
343.146
348.068
336.752
336.488
334.174
320.024
319.221
332.501
334.786
320.144
319.41
304.119
319.242
318.042
335.144
309.46
319.428
316.34
305.724
317.978
316.54
308.35
154.458
315.607
272.32
304.232
316.536
317.933
156.413
308.324
272.307
315.609
334.573
317.968
319.158
309.438
335.146
316.342
319.433
332.364
319.114
319.988
334.787
332.501
319.415
320.146
317.044
303.471
302.161
315.964
317.163
303.492
302.214
316.786
302.129
301.136
317.134
314.942
302.122
300.831
315.308
301.044
300.477
314.233
279.418
300.54
298.843
316.659
300.479
301.015
279.407
314.233
298.843
300.538
316.966
301.162
302.055
314.942
317.138
300.828
302.123
315.849
302.106
303.412
317.167
315.965
302.215
303.494
300.171
286.973
285.565
299.357
300.156
286.943
285.785
299.119
285.465
285.084
300.073
298.995
285.754
285.464
298.575
285.18
285.517
298.771
297.543
285.422
285.237
299.017
285.517
285.073
297.543
298.769
285.237
285.422
299.94
285.062
285.5
298.993
300.074
285.464
285.755
299.256
285.502
286.98
300.157
299.358
285.785
286.943
282.491
270.109
269.926
282.778
282.674
270.128
270.095
282.194
269.856
270.051
282.617
282.43
270.07
270.006
282.442
270.038
270.012
282.367
282.253
269.986
269.953
282.303
270.012
270.037
282.253
282.367
269.953
269.986
282.329
270.051
269.873
282.43
282.617
270.006
270.071
282.776
269.944
270.067
282.675
282.778
270.095
270.128
265.604
252.663
252.775
265.849
265.827
252.769
252.768
265.795
252.77
252.756
265.808
265.762
252.761
252.745
265.767
252.753
252.747
265.749
265.726
252.741
252.733
265.785
252.747
252.753
265.726
265.749
252.733
252.741
265.659
252.756
252.77
265.763
265.809
252.745
252.761
265.831
252.775
252.721
265.827
265.849
252.768
252.769
248.315
236.726
236.726
248.308
248.309
236.725
236.725
248.301
236.723
236.721
248.305
248.293
236.722
236.719
248.295
236.719
236.718
248.291
248.285
236.717
236.716
248.299
236.718
236.719
248.285
248.291
236.716
236.717
248.311
236.721
236.723
248.293
248.305
236.719
236.722
248.31
236.726
236.726
248.309
248.308
236.725
236.725
351.33
405.425
345.42
405.625
350.41
405.844
344.431
346.524
345.19
337.651
350.163
345.861
344.061
336.779
346.2
337.576
337.323
345.644
346.107
336.666
337.161
346.46
337.228
337.594
346.122
346.078
337.241
337.119
351.215
337.587
345.261
346.051
350.335
336.994
344.252
405.69
345.345
405.488
350.493
405.055
344.425
405.129
343.4
404.918
337.516
405.791
342.392
405.962
336.454
334.64
337.24
325.65
341.992
333.684
336.133
324.759
334.308
325.578
325.299
333.567
334.144
324.526
325.178
334.584
325.22
325.599
334.208
334.086
325.165
324.982
343.229
325.584
337.31
333.903
342.158
324.974
336.201
405.271
337.442
404.991
342.38
405.043
336.433
405.182
335.502
404.407
329.631
405.86
334.421
406.01
328.741
322.608
329.314
313.504
334.019
321.727
328.097
312.718
322.247
313.44
313.096
321.405
322.004
312.274
312.704
322.56
313.042
313.462
321.99
321.91
312.689
312.551
335.286
313.439
329.386
321.931
334.123
312.744
328.182
404.735
329.556
404.496
334.444
405.093
328.769
405.348
327.62
405.328
321.755
406.014
326.616
406.985
320.749
310.417
321.424
301.163
325.853
309.475
319.809
299.987
309.988
301.098
300.634
309.102
309.509
299.55
300.032
310.376
300.599
301.119
309.496
309.391
300.036
299.871
327.369
301.098
321.498
309.541
325.935
300.141
319.947
404.448
321.681
405.438
326.673
405.402
320.809
406.523
319.744
405.495
313.975
407.222
318.703
406.76
312.904
298.023
313.743
288.653
317.797
296.72
311.658
287.215
297.438
288.585
287.726
296.342
296.872
287.013
287.625
297.974
287.73
288.575
296.882
296.66
287.647
287.298
319.492
288.621
313.755
296.87
317.666
287.283
311.693
405.795
313.966
405.564
318.776
406.864
312.936
406.463
312.759
397.648
312.865
405.6
311.293
399.173
311.787
286.379
312.734
278.727
311.055
284.693
311.295
277.314
285.029
278.555
267.354
284.669
285.574
277.19
278.19
286.346
267.416
278.599
285.57
284.957
278.186
277.373
312.692
278.695
312.809
284.78
310.946
277.099
310.942
404.56
312.798
397.667
311.085
405.346
311.245
398.946
312.791
382.828
313.194
395.828
311.744
384.31
312.212
277.577
313.005
269.272
311.242
276.192
311.688
268.656
262.792
268.604
207.54
276.07
277.091
268.443
269.768
277.418
207.799
268.653
277.088
276.251
269.767
268.623
312.739
269.248
313.097
275.978
311.137
268.37
311.488
394.286
313.111
382.836
311.383
395.635
311.709
384.146
313.543
367.188
322.71
380.288
312.47
368.148
320.329
268.002
322.343
260.932
311.913
267.563
319.373
263.474
197.039
260.107
120.648
267.357
268.723
263.492
264.732
267.29
119.677
260.191
268.721
267.454
264.719
264.097
313.432
260.938
322.478
267.175
311.697
263.72
319.049
378.895
322.573
367.19
311.927
380.127
319.41
368.033
324.815
351.871
341.905
364.225
322.223
351.898
339.301
260.692
341.713
261.352
321.372
263.488
339.091
267.623
124.909
259.394
131.45
263.541
264.74
267.667
268.994
259.895
144.046
259.441
264.736
264.106
268.964
267.32
324.579
261.265
341.781
263.714
321.006
267.002
338.612
363.334
341.806
351.869
321.266
364.055
338.317
351.935
343.146
336.478
336.691
348.046
340.923
336.296
335.871
262.318
337.02
304.959
341.013
268.418
336.136
299.024
130.758
303.582
56.1563
268.499
269.947
298.924
301.294
260.34
55.6018
303.7
269.938
268.216
301.246
298.76
343.077
304.79
337.02
267.853
340.569
298.81
336.152
348.064
336.692
336.478
340.067
348.027
335.877
336.294
334.729
320.14
319.404
332.295
333.867
319.989
319.116
309.281
319.424
316.409
334.031
302.528
319.057
318.026
315.691
267.712
302.407
304.876
317.925
317.511
308.174
267.696
315.691
304.834
302.251
317.509
317.961
335.077
316.41
319.429
302.278
334.05
318.037
319.03
332.492
319.408
320.144
333.882
332.293
319.032
319.986
317.162
303.496
302.219
315.866
316.98
303.443
302.136
315.019
302.13
300.885
316.876
316.847
302.07
301.45
277.682
300.605
298.954
316.752
316.329
301.187
300.809
314.323
298.954
300.606
316.327
316.787
300.808
301.192
317.14
300.887
302.132
316.855
316.9
301.474
302.073
315.966
302.221
303.499
316.915
315.865
302.138
303.44
300.161
286.947
285.787
299.305
300.027
286.953
285.486
299.037
285.757
285.471
299.948
299.404
285.462
285.24
297.622
285.43
285.247
299.153
298.838
285.539
285.604
298.82
285.247
285.43
298.838
299.151
285.604
285.482
300.082
285.471
285.757
299.433
299.95
285.234
285.463
299.365
285.787
286.95
300.039
299.299
285.486
286.949
282.679
270.131
270.097
282.624
282.345
269.918
270.019
282.44
270.073
270.009
282.292
282.43
270.067
270.068
282.268
269.99
269.957
282.565
282.504
270.055
270.034
282.379
269.957
269.99
282.503
282.513
270.034
270.056
282.623
270.009
270.073
282.424
282.296
270.068
270.069
282.785
270.097
270.134
282.348
282.673
270.023
269.876
265.828
252.772
252.768
265.751
265.845
252.767
252.657
265.765
252.762
252.746
265.836
265.807
252.722
252.761
265.729
252.742
252.734
265.798
265.783
252.758
252.752
265.752
252.734
252.742
265.783
265.798
252.752
252.758
265.81
252.746
252.762
265.808
265.837
252.761
252.723
265.854
252.768
252.775
265.846
265.734
252.6
252.779
248.31
236.726
236.725
248.267
248.308
236.713
236.727
248.294
236.722
236.719
248.313
248.305
236.724
236.722
248.286
236.717
236.716
248.303
248.299
236.72
236.719
248.291
236.716
236.717
248.299
248.303
236.719
236.72
248.306
236.719
236.722
248.305
248.313
236.722
236.724
248.313
236.725
236.726
248.265
248.279
236.726
236.695
350.203
405.208
344.37
412.183
404.195
411.246
404.215
347.302
344.387
339.29
403.993
403.534
404.048
403.661
347.533
339.448
339.723
403.637
404.04
403.797
404.001
347.348
339.66
339.572
404.02
403.632
403.966
403.678
349.944
339.424
343.863
403.614
403.971
403.648
403.971
405.063
343.541
404.97
404.33
413.244
404.381
412.407
342.307
405.179
336.241
410.899
404.048
410.159
404.044
336.51
336.233
328.529
403.91
403.589
403.931
403.824
337.061
328.624
329.106
403.742
403.959
403.951
404.303
336.93
329.038
329.054
404.018
403.636
404.251
403.94
341.76
328.877
335.75
403.597
403.877
403.85
403.95
404.858
335.71
404.898
404.288
412.162
404.367
411.381
334.143
405.122
328.225
409.749
404.031
408.83
404.156
325.943
328.206
318.118
403.841
403.824
404.02
404.253
326.344
318.177
318.15
403.983
404.331
404.608
404.893
326.322
318.096
318.228
404.278
403.969
404.843
404.498
333.734
318.052
327.889
403.857
403.883
404.303
404.086
404.781
327.762
404.915
404.284
410.964
404.54
409.766
326.044
406.06
320.22
408.487
404.241
408.038
405.519
315.348
320
307.043
404.141
404.415
405.534
405.882
315.205
307.047
306.837
404.783
405.102
406.229
406.741
315.467
306.794
307.06
405.059
404.673
406.716
406.107
325.715
306.988
319.88
404.464
404.178
405.921
405.383
404.962
319.799
405.882
404.601
409.332
405.731
407.819
318.149
406.403
312.388
407.347
405.92
406.056
406.373
304.058
312.157
296.062
405.985
406.361
406.617
406.949
304.011
296.199
295.909
406.755
407.24
407.301
407.756
304.15
295.895
296.132
407.22
406.639
407.751
407.212
317.68
295.973
311.96
406.401
405.8
406.999
406.039
406.241
312.017
406.124
406.062
407.791
406.352
406.127
311.236
398.805
311.513
404.83
405.472
397.916
399.48
285.179
311.678
278.714
405.659
406.017
399.726
399.986
285.013
278.437
278.349
406.267
406.621
400.224
400.292
285.302
278.159
278.827
406.619
406.189
400.295
400.17
311.369
278.677
311.297
406.057
405.124
400.01
399.092
405.143
310.896
398.639
405.42
404.94
399.298
397.956
311.435
383.888
311.684
394.888
396.235
383.494
384.522
277.631
311.72
270.217
396.491
396.725
384.912
385.09
277.23
269.735
269.787
396.968
396.988
385.334
385.324
277.734
269.522
269.729
396.991
396.911
385.328
385.248
311.446
269.005
311.682
396.753
395.945
385.092
384.582
395.328
311.18
383.839
396.131
394.562
384.684
383.154
311.91
367.851
319.329
379.556
380.421
367.687
368.042
269.124
319.407
264.554
380.624
380.93
368.215
368.361
268.732
264.534
264.568
381.176
381.217
368.298
368.485
268.753
264.522
264.638
381.22
381.102
368.495
368.833
311.898
264.033
319.348
381.003
380.558
368.808
368.339
379.832
318.482
367.827
380.655
379.236
368.41
367.415
321.159
351.931
337.811
363.751
364.116
351.85
352.118
264.545
338.485
267.942
364.231
364.359
352.12
352.236
264.641
267.822
269.06
364.327
364.352
352.322
352.513
264.643
268.988
267.807
364.358
364.713
352.513
352.308
321.195
267.851
338.284
364.69
364.141
352.222
352.118
363.881
336.962
351.905
364.224
363.55
352.137
351.847
339.603
336.226
335.769
347.911
348.062
336.045
336.244
268.759
335.904
299.565
348.1
348.262
336.288
336.435
270.116
299.087
301.355
348.304